<?xml version="1.0" encoding="UTF-8" ?>
<psml version="1.1" energy_unit="hartree" length_unit="bohr"
 uuid="19b55ce0-471d-11e8-4c66-0b8ffbb93079"
 xmlns="http://esl.cecam.org/PSML/ns/1.1">
<provenance creator="ONCVPSP-3.3.0+psml-3.3.0-73 (fully-relativistic)"
 date="2018-04-23">
<annotation action="semilocal-pseudopotential-generation"
 action-cont="projectors-generation" />
<input-file name="oncvpsp-input">
<![CDATA[# atsym z nc nv iexc psfile
Ar 18 3 2 4 both
# n l f
1 0 2.0
2 0 2.0
2 1 6.0
3 0 2.0
3 1 6.0
# lmax
2
# l rc ep ncon nbas qcut
0 1.55 0.0 4 8 8.2
1 1.55 0.0 4 8 8.2
2 1.55 0.1 4 8 8.2
# lloc lpopt rc5 dvloc0
4 5 1.5 0.0
# l nproj debl
0 2 1.5
1 2 1.5
2 2 1.0
# icmod fcfact
3 7 1.25
# epsh1 epsh2 depsh
-12.0 12.0 0.02
# rlmax drl
4.0 0.01
 0
]]>
</input-file>
</provenance>
<pseudo-atom-spec atomic-label="Ar" atomic-number="18" z-pseudo="8"
 flavor="Hamann&apos;s oncvpsp" relativity="dirac" spin-dft="no"
 core-corrections="yes">
<annotation pseudo-energy="-21.1574806129" />
<exchange-correlation>
<annotation oncvpsp-xc-code="4" oncvpsp-xc-type="GGA -- Perdew-Burke-Ernzerhof" />
<libxc-info number-of-functionals="2">
<functional name="Perdew, Burke &amp; Ernzerhof (GGA)" type="exchange" id="101" />
<functional name="Perdew, Burke &amp; Ernzerhof (GGA)" type="correlation"
 id="130" />
</libxc-info>
</exchange-correlation>
<valence-configuration total-valence-charge="8">
<shell n="3" l="s" occupation="2" />
<shell n="3" l="p" occupation="6" />
</valence-configuration>
</pseudo-atom-spec>
<grid npts="457">
<annotation type="sampled from oncvpsp log grid"
 recipe="r(i:1..N) = r1*exp(a*(i-1)) + r=0; resampled"
 recipe-cont="r1: scale; a: step" scale="0.277777777778E-04"
 step="0.119285708653E-01" delta="0.500000000000E-02" rmax="44.1337637881" />
<grid-data>
  0.000000000000E+00  5.039656670363E-03  1.006631870100E-02  1.510108323112E-02
  2.010668162892E-02  2.522145511185E-02  3.052518740768E-02  3.564552384771E-02
  4.113117834404E-02  4.634216045545E-02  5.159420074619E-02  5.676034011613E-02
  6.244376622769E-02  6.788169478566E-02  7.291816847781E-02  7.832832269358E-02
  8.413988261178E-02  8.931089968118E-02  9.479971393192E-02  1.006258563474E-01
  1.068100582341E-01  1.120299654056E-01  1.175049743093E-01  1.232475520049E-01
  1.292707748288E-01  1.355883581702E-01  1.422146877022E-01  1.473960989515E-01
  1.527662883290E-01  1.583321337255E-01  1.641007636193E-01  1.700795662056E-01
  1.762761988591E-01  1.826985979412E-01  1.893549889646E-01  1.962538971280E-01
  2.034041582349E-01  2.108149300101E-01  2.159048456802E-01  2.211176522743E-01
  2.264563168709E-01  2.319238781854E-01  2.375234483003E-01  2.432582144361E-01
  2.491314407654E-01  2.551464702712E-01  2.613067266495E-01  2.676157162577E-01
  2.740770301110E-01  2.806943459260E-01  2.874714302141E-01  2.944121404252E-01
  3.015204271436E-01  3.088003363365E-01  3.162560116570E-01  3.238916968025E-01
  3.317117379301E-01  3.397205861307E-01  3.479227999622E-01  3.563230480445E-01
  3.649261117165E-01  3.737368877578E-01  3.827603911758E-01  3.920017580603E-01
  4.014662485069E-01  4.111592496109E-01  4.210862785335E-01  4.261393138759E-01
  4.312529856424E-01  4.364280214701E-01  4.416651577278E-01  4.469651396205E-01
  4.523287212960E-01  4.577566659515E-01  4.632497459429E-01  4.688087428942E-01
  4.744344478090E-01  4.801276611827E-01  4.858891931169E-01  4.917198634343E-01
  4.976205017955E-01  5.035919478170E-01  5.096350511908E-01  5.157506718051E-01
  5.219396798668E-01  5.282029560252E-01  5.345413914975E-01  5.409558881955E-01
  5.474473588538E-01  5.540167271600E-01  5.606649278860E-01  5.673929070206E-01
  5.742016219048E-01  5.810920413677E-01  5.880651458641E-01  5.951219276145E-01
  6.022633907459E-01  6.094905514348E-01  6.168044380520E-01  6.242060913086E-01
  6.316965644044E-01  6.392769231772E-01  6.469482462553E-01  6.547116252104E-01
  6.625681647129E-01  6.705189826895E-01  6.785652104817E-01  6.867079930075E-01
  6.949484889236E-01  7.032878707907E-01  7.117273252402E-01  7.202680531431E-01
  7.289112697808E-01  7.376582050182E-01  7.465101034784E-01  7.554682247201E-01
  7.645338434168E-01  7.737082495378E-01  7.829927485322E-01  7.923886615146E-01
  8.018973254528E-01  8.115200933582E-01  8.212583344785E-01  8.311134344923E-01
  8.410867957062E-01  8.511798372546E-01  8.613939953017E-01  8.717307232453E-01
  8.821914919243E-01  8.927777898273E-01  9.034911233053E-01  9.143330167849E-01
  9.253050129864E-01  9.364086731422E-01  9.476455772199E-01  9.590173241465E-01
  9.705255320363E-01  9.821718384207E-01  9.939579004818E-01  1.005885395288E+00
  1.017956020031E+00  1.030171492271E+00  1.042533550179E+00  1.055043952781E+00
  1.067704480214E+00  1.080516933977E+00  1.093483137184E+00  1.106604934831E+00
  1.119884194049E+00  1.133322804377E+00  1.146922678030E+00  1.160685750166E+00
  1.174613979168E+00  1.188709346918E+00  1.202973859081E+00  1.217409545390E+00
  1.232018459935E+00  1.246802681454E+00  1.261764313631E+00  1.276905485395E+00
  1.292228351220E+00  1.307735091434E+00  1.323427912532E+00  1.339309047482E+00
  1.355380756052E+00  1.371645325124E+00  1.388105069026E+00  1.404762329854E+00
  1.421619477812E+00  1.438678911546E+00  1.455943058485E+00  1.473414375187E+00
  1.491095347689E+00  1.508988491861E+00  1.527096353763E+00  1.545421510009E+00
  1.563966568129E+00  1.582734166946E+00  1.601726976950E+00  1.620947700673E+00
  1.640399073081E+00  1.660083861958E+00  1.680004868302E+00  1.700164926721E+00
  1.720566905842E+00  1.741213708712E+00  1.762108273216E+00  1.783253572495E+00
  1.804652615365E+00  1.826308446749E+00  1.848224148110E+00  1.870402837888E+00
  1.892847671942E+00  1.915561844006E+00  1.938548586134E+00  1.961811169167E+00
  1.985352903197E+00  2.009177138036E+00  2.033287263692E+00  2.057686710856E+00
  2.082378951387E+00  2.107367498803E+00  2.132655908789E+00  2.158247779694E+00
  2.184146753051E+00  2.210356514087E+00  2.236880792256E+00  2.263723361763E+00
  2.290888042105E+00  2.318378698610E+00  2.346199242993E+00  2.374353633909E+00
  2.402845877516E+00  2.431680028046E+00  2.460860188383E+00  2.490390510643E+00
  2.520275196771E+00  2.550518499132E+00  2.581124721122E+00  2.612098217775E+00
  2.643443396389E+00  2.675164717145E+00  2.707266693751E+00  2.739753894076E+00
  2.772630940805E+00  2.805902512095E+00  2.839573342240E+00  2.873648222347E+00
  2.908132001015E+00  2.943029585027E+00  2.978345940047E+00  3.014086091328E+00
  3.050255124424E+00  3.086858185917E+00  3.123900484148E+00  3.161387289958E+00
  3.199323937437E+00  3.237715824687E+00  3.276568414583E+00  3.315887235558E+00
  3.355677882384E+00  3.395946016973E+00  3.436697369177E+00  3.477937737607E+00
  3.519672990458E+00  3.561909066344E+00  3.604651975140E+00  3.647907798841E+00
  3.691682692428E+00  3.735982884737E+00  3.780814679353E+00  3.826184455506E+00
  3.872098668972E+00  3.918563852999E+00  3.965586619235E+00  4.013173658666E+00
  4.061331742570E+00  4.110067723481E+00  4.159388536163E+00  4.209301198597E+00
  4.259812812980E+00  4.310930566736E+00  4.362661733537E+00  4.415013674339E+00
  4.467993838431E+00  4.521609764492E+00  4.575869081666E+00  4.630779510646E+00
  4.686348864774E+00  4.742585051151E+00  4.799496071765E+00  4.857090024626E+00
  4.915375104922E+00  4.974359606181E+00  5.034051921455E+00  5.094460544512E+00
  5.155594071047E+00  5.217461199899E+00  5.280070734298E+00  5.343431583109E+00
  5.407552762107E+00  5.472443395252E+00  5.538112715995E+00  5.604570068587E+00
  5.671824909410E+00  5.739886808323E+00  5.808765450023E+00  5.878470635423E+00
  5.949012283048E+00  6.020400430445E+00  6.092645235610E+00  6.165756978437E+00
  6.239746062179E+00  6.314623014925E+00  6.390398491104E+00  6.467083272997E+00
  6.544688272273E+00  6.623224531540E+00  6.702703225919E+00  6.783135664630E+00
  6.864533292606E+00  6.946907692117E+00  7.030270584422E+00  7.114633831435E+00
  7.200009437412E+00  7.286409550661E+00  7.373846465269E+00  7.462332622853E+00
  7.551880614327E+00  7.642503181699E+00  7.734213219879E+00  7.827023778518E+00
  7.920948063860E+00  8.015999440626E+00  8.112191433914E+00  8.209537731121E+00
  8.308052183894E+00  8.407748810101E+00  8.508641795822E+00  8.610745497372E+00
  8.714074443340E+00  8.818643336661E+00  8.924467056700E+00  9.031560661381E+00
  9.139939389317E+00  9.249618661989E+00  9.360614085933E+00  9.472941454964E+00
  9.586616752424E+00  9.701656153453E+00  9.818076027294E+00  9.935892939622E+00
  1.005512365490E+01  1.017578513876E+01  1.029789456042E+01  1.042146929515E+01
  1.054652692669E+01  1.067308524981E+01  1.080116227281E+01  1.093077622008E+01
  1.106194553472E+01  1.119468888114E+01  1.132902514771E+01  1.146497344948E+01
  1.160255313088E+01  1.174178376845E+01  1.188268517367E+01  1.202527739575E+01
  1.216958072450E+01  1.231561569320E+01  1.246340308151E+01  1.261296391849E+01
  1.276431948551E+01  1.291749131934E+01  1.307250121517E+01  1.322937122976E+01
  1.338812368451E+01  1.354878116873E+01  1.371136654275E+01  1.387590294126E+01
  1.404241377656E+01  1.421092274188E+01  1.438145381478E+01  1.455403126056E+01
  1.472867963568E+01  1.490542379131E+01  1.508428887681E+01  1.526530034333E+01
  1.544848394745E+01  1.563386575482E+01  1.582147214388E+01  1.601132980960E+01
  1.620346576732E+01  1.639790735653E+01  1.659468224481E+01  1.679381843174E+01
  1.699534425292E+01  1.719928838396E+01  1.740567984457E+01  1.761454800270E+01
  1.782592257873E+01  1.803983364968E+01  1.825631165347E+01  1.847538739332E+01
  1.869709204204E+01  1.892145714654E+01  1.914851463230E+01  1.937829680789E+01
  1.961083636958E+01  1.984616640602E+01  2.008432040289E+01  2.032533224772E+01
  2.056923623470E+01  2.081606706951E+01  2.106585987435E+01  2.131865019284E+01
  2.157447399515E+01  2.183336768309E+01  2.209536809529E+01  2.236051251243E+01
  2.262883866258E+01  2.290038472654E+01  2.317518934325E+01  2.345329161537E+01
  2.373473111476E+01  2.401954788813E+01  2.430778246279E+01  2.459947585235E+01
  2.489466956257E+01  2.519340559732E+01  2.549572646449E+01  2.580167518207E+01
  2.611129528425E+01  2.642463082766E+01  2.674172639759E+01  2.706262711436E+01
  2.738737863974E+01  2.771602718341E+01  2.804861950962E+01  2.838520294373E+01
  2.872582537906E+01  2.907053528360E+01  2.941938170701E+01  2.977241428749E+01
  3.012968325894E+01  3.049123945805E+01  3.085713433155E+01  3.122741994352E+01
  3.160214898285E+01  3.198137477064E+01  3.236515126789E+01  3.275353308310E+01
  3.314657548010E+01  3.354433438586E+01  3.394686639849E+01  3.435422879527E+01
  3.476647954082E+01  3.518367729531E+01  3.560588142285E+01  3.603315199992E+01
  3.646554982392E+01  3.690313642181E+01  3.734597405887E+01  3.779412574758E+01
  3.824765525655E+01  3.870662711963E+01  3.917110664506E+01  3.964115992480E+01
  4.011685384390E+01  4.059825609003E+01  4.108543516311E+01  4.157846038507E+01
  4.207740190969E+01  4.258233073260E+01  4.309331870139E+01  4.361043852581E+01
  4.413376378812E+01
</grid-data>
</grid>
<valence-charge total-charge="8" is-unscreening-charge="yes"
 rescaled-to-z-pseudo="no">
<radfunc>
<data npts="457">
  4.160576834612E-02  4.187927470224E-02  4.269702458450E-02  4.406180462664E-02
  4.596034015535E-02  4.845852618241E-02  5.164541905515E-02  5.529879887937E-02
  5.984221669641E-02  6.476195837883E-02  7.031668230962E-02  7.636549755179E-02
  8.369141127454E-02  9.136075449773E-02  9.904076311865E-02  1.079099847978E-01
  1.181536845776E-01  1.278937718492E-01  1.388784811433E-01  1.512680601574E-01
  1.652436229347E-01  1.777026850538E-01  1.914242552282E-01  2.065373571764E-01
  2.231843084221E-01  2.415220750841E-01  2.617237501879E-01  2.782122755102E-01
  2.959437976991E-01  3.150125207080E-01  3.355197060123E-01  3.575741541561E-01
  3.812927042725E-01  4.068007478875E-01  4.342327518537E-01  4.637327834334E-01
  4.954550283075E-01  5.295642895375E-01  5.537163051268E-01  5.790620883763E-01
  6.056588942020E-01  6.335663332272E-01  6.628463992479E-01  6.935634841372E-01
  7.257843776860E-01  7.595782495427E-01  7.950166100457E-01  8.321732463434E-01
  8.711241297613E-01  9.119472899074E-01  9.547226505100E-01  9.995318214482E-01
  1.046457840882E+00  1.095584860816E+00  1.146997768824E+00  1.200781738108E+00
  1.257021697428E+00  1.315801711943E+00  1.377204265449E+00  1.441309434110E+00
  1.508193941414E+00  1.577930083929E+00  1.650584517429E+00  1.726216893180E+00
  1.804878334740E+00  1.886609746481E+00  1.971439946400E+00  2.015022292331E+00
  2.059383617591E+00  2.104523182629E+00  2.150439075214E+00  2.197128130600E+00
  2.244585848901E+00  2.292806309771E+00  2.341782084468E+00  2.391504145439E+00
  2.441961773576E+00  2.493142463308E+00  2.545031825754E+00  2.597613490172E+00
  2.650869003973E+00  2.704777731641E+00  2.759316752873E+00  2.814460760385E+00
  2.870181957773E+00  2.926449957964E+00  2.983231682751E+00  3.040491264028E+00
  3.098189947333E+00  3.156285998413E+00  3.214734613525E+00  3.273487834290E+00
  3.332494467928E+00  3.391700013787E+00  3.451046597120E+00  3.510472911094E+00
  3.569914168113E+00  3.629302061517E+00  3.688564738830E+00  3.747626787692E+00
  3.806409235718E+00  3.864829565483E+00  3.922801745891E+00  3.980236281177E+00
  4.037040278786E+00  4.093117537364E+00  4.148368656070E+00  4.202691166364E+00
  4.255979687389E+00  4.308126105973E+00  4.359019782204E+00  4.408547781409E+00
  4.456595133244E+00  4.503045118470E+00  4.547779583788E+00  4.590679284950E+00
  4.631624258138E+00  4.670494219358E+00  4.707168991388E+00  4.741528957473E+00
  4.773455540764E+00  4.802831708094E+00  4.829542496444E+00  4.853475560064E+00
  4.874521735895E+00  4.892575624584E+00  4.907536184028E+00  4.919307332055E+00
  4.927798554469E+00  4.932925514412E+00  4.934610658631E+00  4.932783816003E+00
  4.927382783377E+00  4.918353893589E+00  4.905652560335E+00  4.889243794439E+00
  4.869102686000E+00  4.845214846858E+00  4.817576807890E+00  4.786196365746E+00
  4.751092873818E+00  4.712297472498E+00  4.669853254098E+00  4.623815358218E+00
  4.574250993809E+00  4.521239384732E+00  4.464871636199E+00  4.405250520182E+00
  4.342490178556E+00  4.276715743528E+00  4.208062875719E+00  4.136677221049E+00
  4.062713788487E+00  3.986336251529E+00  3.907716177141E+00  3.827032186767E+00
  3.744469054774E+00  3.660216750529E+00  3.574469431030E+00  3.487424391691E+00
  3.399280983549E+00  3.310239505673E+00  3.220500082098E+00  3.130261532976E+00
  3.039720249982E+00  2.949069086246E+00  2.858496271213E+00  2.768184360876E+00
  2.678309233766E+00  2.589039142899E+00  2.500533833630E+00  2.412943736925E+00
  2.326409247116E+00  2.241060092546E+00  2.157014806825E+00  2.074380307601E+00
  1.993251588938E+00  1.913711810626E+00  1.835833679756E+00  1.759681647909E+00
  1.685312511711E+00  1.612775235025E+00  1.542111381592E+00  1.473355350540E+00
  1.406534661694E+00  1.341670250143E+00  1.278776771144E+00  1.217862913186E+00
  1.158931716966E+00  1.101980898532E+00  1.047003174451E+00  9.939865873370E-01
  9.429148300830E-01  8.937675672491E-01  8.465207522182E-01  8.011469388343E-01
  7.576155863736E-01  7.158933568240E-01  6.759444035767E-01  6.377306506693E-01
  6.012120620675E-01  5.663469002525E-01  5.330919737437E-01  5.014028731815E-01
  4.712341957038E-01  4.425397574391E-01  4.152727940217E-01  3.893861491079E-01
  3.648324509402E-01  3.415642770719E-01  3.195343074149E-01  2.986954658268E-01
  2.790010504944E-01  2.604048534070E-01  2.428612692442E-01  2.263253940293E-01
  2.107531139182E-01  1.961011845092E-01  1.823273010736E-01  1.693901601095E-01
  1.572495126302E-01  1.458662095982E-01  1.352022399138E-01  1.252207613687E-01
  1.158861249651E-01  1.071638930018E-01  9.902085131749E-02  9.142501607896E-02
  8.434563549116E-02  7.775318680225E-02  7.161936896645E-02  6.591709132121E-02
  6.062045862629E-02  5.570475280433E-02  5.114641171346E-02  4.692300527295E-02
  4.301320925333E-02  3.939677703153E-02  3.605450960045E-02  3.296822411064E-02
  3.012072120865E-02  2.749575142398E-02  2.507798084202E-02  2.285295628634E-02
  2.080707021874E-02  1.892752554997E-02  1.720230053902E-02  1.562011394292E-02
  1.417039056365E-02  1.284322732347E-02  1.162935998453E-02  1.052013061425E-02
  9.507455883470E-03  8.583796270588E-03  7.742126232205E-03  6.975905388078E-03
  6.279050756913E-03  5.645910068739E-03  5.071236169791E-03  4.550162526901E-03
  4.078179830379E-03  3.651113687275E-03  3.265103390663E-03  2.916581745321E-03
  2.602255925636E-03  2.319089337947E-03  2.064284456566E-03  1.835266600538E-03
  1.629668616576E-03  1.445316432598E-03  1.280215445772E-03  1.132537708852E-03
  1.000609878854E-03  8.829018926677E-04  7.780163349677E-04  6.846784647395E-04
  6.017268678047E-04  5.281047038838E-04  4.628515179282E-04  4.050955866605E-04
  3.540467724641E-04  3.089898579323E-04  2.692783355185E-04  2.343286278175E-04
  2.036147150368E-04  1.766631472021E-04  1.530484195705E-04  1.323886906082E-04
  1.143418227307E-04  9.860172680526E-05  8.489499218387E-05  7.297778477730E-05
  6.263299639564E-05  5.366762928067E-05  4.591040043605E-05  3.920955103031E-05
  3.343084680489E-05  2.845575606763E-05  2.417979249071E-05  2.051101056273E-05
  1.736864216597E-05  1.468186336226E-05  1.238868107264E-05  1.043492992664E-05
  8.773370134871E-06  7.362877802698E-06  6.167719651385E-06  5.156904645275E-06
  4.303605538006E-06  3.584643846242E-06  2.980032235129E-06  2.472568754803E-06
  2.047477801168E-06  1.692093086387E-06  1.395578294820E-06  1.148681468388E-06
  9.435195116277E-07  7.733895312055E-07  6.326040277803E-07  5.163472402683E-07
  4.205502044072E-07  3.417823296864E-07  2.771575219760E-07  2.242530843794E-07
  1.810398168120E-07  1.458219064859E-07  1.171853577848E-07  9.395385188474E-08
  7.515105484987E-08  5.996850875070E-08  4.773834451398E-08  3.791014862235E-08
  3.003139928925E-08  2.373096217053E-08  1.870520182547E-08  1.470632375347E-08
  1.153261361262E-08  9.020285834426E-09  7.036693899558E-09  5.474689606578E-09
  4.247949276492E-09  3.287111477536E-09  2.536593971811E-09  1.951977583978E-09
  1.497861940789E-09  1.146112861578E-09  8.744338939583E-10  6.652053546084E-10
  5.045434923165E-10  3.815402529928E-10  2.876507834525E-10  2.162014295029E-10
  1.619957112028E-10  1.209997228274E-10  9.009171944234E-11  6.686341373939E-11
  4.946280056194E-11  3.647022536092E-11  2.680097946988E-11  1.962899334321E-11
  1.432725465392E-11  1.042144040784E-11  7.553954034283E-12  5.456127633809E-12
  3.926809625846E-12  2.815928558208E-12  2.011921175068E-12  1.432150581787E-12
  1.015629742723E-12  7.175158748448E-13  5.049601700626E-13  3.539909203784E-13
  2.471816053833E-13  1.719129473169E-13  1.190826707946E-13  8.215139891157E-14
  5.643991973776E-14  3.861367913835E-14  2.630615786512E-14  1.784484618738E-14
  1.205271878432E-14  8.104965216781E-15  5.426103410412E-15  3.616365011858E-15
  2.399273899233E-15  1.584478674456E-15  1.041518530533E-15  6.813902554671E-16
  4.436561767118E-16  2.874685955651E-16  0.000000000000E+00  0.000000000000E+00
  0.000000000000E+00  0.000000000000E+00  0.000000000000E+00  0.000000000000E+00
  0.000000000000E+00  0.000000000000E+00  0.000000000000E+00  0.000000000000E+00
  0.000000000000E+00  0.000000000000E+00  0.000000000000E+00  0.000000000000E+00
  0.000000000000E+00  0.000000000000E+00  0.000000000000E+00  0.000000000000E+00
  0.000000000000E+00  0.000000000000E+00  0.000000000000E+00  0.000000000000E+00
  0.000000000000E+00  0.000000000000E+00  0.000000000000E+00  0.000000000000E+00
  0.000000000000E+00  0.000000000000E+00  0.000000000000E+00  0.000000000000E+00
  0.000000000000E+00  0.000000000000E+00  0.000000000000E+00  0.000000000000E+00
  0.000000000000E+00  0.000000000000E+00  0.000000000000E+00  0.000000000000E+00
  0.000000000000E+00  0.000000000000E+00  0.000000000000E+00  0.000000000000E+00
  0.000000000000E+00  0.000000000000E+00  0.000000000000E+00  0.000000000000E+00
  0.000000000000E+00  0.000000000000E+00  0.000000000000E+00  0.000000000000E+00
  0.000000000000E+00  0.000000000000E+00  0.000000000000E+00  0.000000000000E+00
  0.000000000000E+00  0.000000000000E+00  0.000000000000E+00  0.000000000000E+00
  0.000000000000E+00  0.000000000000E+00  0.000000000000E+00  0.000000000000E+00
  0.000000000000E+00  0.000000000000E+00  0.000000000000E+00  0.000000000000E+00
  0.000000000000E+00
</data>
</radfunc>
</valence-charge>
<pseudocore-charge matching-radius="0.746510103478"
 number-of-continuous-derivatives="4">
<annotation model-charge-form="Teter function with specified parameters" />
<radfunc>
<data npts="256">
  3.200094416191E+01  3.199799520021E+01  3.198918022849E+01  3.197447538207E+01
  3.195403383008E+01  3.192716105232E+01  3.189292140085E+01  3.185372690422E+01
  3.180506850619E+01  3.175248520073E+01  3.169324610045E+01  3.162889489330E+01
  3.155117514154E+01  3.147006612668E+01  3.138910286055E+01  3.129592216092E+01
  3.118872332422E+01  3.108721054055E+01  3.097320757527E+01  3.084523036796E+01
  3.070163268827E+01  3.057428951925E+01  3.043476676124E+01  3.028196222687E+01
  3.011468713799E+01  2.993166216013E+01  2.973151393500E+01  2.956928494844E+01
  2.939594263715E+01  2.921079903406E+01  2.901313486603E+01  2.880219997276E+01
  2.857721411134E+01  2.833736821484E+01  2.808182618097E+01  2.780972727544E+01
  2.752018924305E+01  2.721231222815E+01  2.699642224196E+01  2.677170375471E+01
  2.653788390457E+01  2.629469035564E+01  2.604185242351E+01  2.577910232624E+01
  2.550617656864E+01  2.522281746777E+01  2.492877482731E+01  2.462380776819E+01
  2.430768672253E+01  2.398019559692E+01  2.364113411078E+01  2.329032031370E+01
  2.292759328510E+01  2.255281601706E+01  2.216587847986E+01  2.176670086672E+01
  2.135523701193E+01  2.093147797288E+01  2.049545576294E+01  2.004724721780E+01
  1.958697797293E+01  1.911482652451E+01  1.863102834021E+01  1.813587997940E+01
  1.762974317548E+01  1.711304882519E+01  1.658630082178E+01  1.631933501989E+01
  1.605007966004E+01  1.577861981420E+01  1.550504573305E+01  1.522945292569E+01
  1.495194223093E+01  1.467261987910E+01  1.439159754367E+01  1.410899238155E+01
  1.382492706148E+01  1.353952977914E+01  1.325293425838E+01  1.296527973727E+01
  1.267671093818E+01  1.238737802072E+01  1.209743651663E+01  1.180704724552E+01
  1.151637621046E+01  1.122559447250E+01  1.093487800298E+01  1.064440751294E+01
  1.035436825844E+01  1.006494982117E+01  9.776345863404E+00  9.488753856702E+00
  9.202374783611E+00  8.917412811886E+00  8.634074940780E+00  8.352570619090E+00
  8.073111334770E+00  7.795910176096E+00  7.521181364506E+00  7.249139759433E+00
  6.980000335626E+00  6.713977633686E+00  6.451285184736E+00  6.192134910408E+00
  5.936736499553E+00  5.685296763361E+00  5.438018970853E+00  5.195102166950E+00
  4.956740475684E+00  4.723122391337E+00  4.494430060654E+00  4.270838559546E+00
  4.052515168002E+00  3.839618647243E+00  3.632298523416E+00  3.430694382406E+00
  3.234935180614E+00  3.045138576775E+00  2.861410290081E+00  2.683843490110E+00
  2.512518224121E+00  2.347500887461E+00  2.188843742804E+00  2.036584494006E+00
  1.890745920250E+00  1.751335576059E+00  1.618345562553E+00  1.491752375060E+00
  1.371516831837E+00  1.257584088250E+00  1.149883740230E+00  1.048330020249E+00
  9.528220883579E-01  8.632444200873E-01  7.794672921412E-01  7.013473659135E-01
  6.287283678438E-01  5.614418645779E-01  4.993081297835E-01  4.421370983135E-01
  3.897294022274E-01  3.418774819825E-01  2.983667649155E-01  2.589769019704E-01
  2.234830525083E-01  1.916572059833E-01  1.632695283174E-01  1.380897199646E-01
  1.158883719616E-01  9.643830573685E-02  7.951588210913E-02  6.490226478632E-02
  5.238462378016E-02  4.175726450918E-02  3.282266897648E-02  2.539243629135E-02
  1.928811095434E-02  1.434188874035E-02  1.039719168237E-02  7.309105560304E-03
  4.944675409906E-03  3.183056851005E-03  1.915523451602E-03  1.045332846149E-03
  4.874568575596E-04  1.681833732000E-04  2.460013088977E-05  3.972815416815E-06
  6.303188213729E-05  1.671842467961E-04  2.896673487943E-04  4.106640545433E-04
  5.163973734093E-04  5.982239780196E-04  6.517450344976E-04  6.759518537626E-04
  6.724223873279E-04  6.445826435989E-04  5.970447459111E-04  5.350306620427E-04
  4.638876939718E-04  3.886987277176E-04  3.139871184560E-04  2.435130444967E-04
  1.801553252755E-04  1.258701791903E-04  8.171630261312E-05  4.793407132637E-05
  2.406566775330E-05  9.102562797115E-06  1.647040518317E-06  7.532516047058E-08
  2.691297821773E-06  7.861687309019E-06  1.412587135868E-05  2.027589327769E-05
  2.540483359349E-05  2.892411995218E-05  3.055256008964E-05  3.028170714759E-05
  2.832350517879E-05  2.504694186711E-05  2.091062364054E-05  1.639779936932E-05
  1.195945219989E-05  7.969755981097E-06  4.696588332186E-06  2.288064460859E-06
  7.743707518299E-07  8.269434674782E-08  6.190125529453E-08  5.129111195507E-07
  1.220504184440E-06  1.982574124758E-06  2.633553717854E-06  3.059784993452E-06
  3.205840699047E-06  3.072068811129E-06  2.704765222381E-06  2.181240817399E-06
  1.592536169626E-06  1.026601477722E-06  5.544128519397E-07  2.208094059378E-07
  4.092844383526E-08  0.000000000000E+00  0.000000000000E+00  0.000000000000E+00
  0.000000000000E+00  0.000000000000E+00  0.000000000000E+00  0.000000000000E+00
  0.000000000000E+00  0.000000000000E+00  0.000000000000E+00  0.000000000000E+00
  0.000000000000E+00  0.000000000000E+00  0.000000000000E+00  0.000000000000E+00
  0.000000000000E+00  0.000000000000E+00  0.000000000000E+00  0.000000000000E+00
  0.000000000000E+00  0.000000000000E+00  0.000000000000E+00  0.000000000000E+00
  0.000000000000E+00  0.000000000000E+00  0.000000000000E+00  0.000000000000E+00
  0.000000000000E+00  0.000000000000E+00  0.000000000000E+00  0.000000000000E+00
</data>
</radfunc>
</pseudocore-charge>
<semilocal-potentials set="scalar_relativistic">
<slps n="3" l="s" rc="1.56396656813">
<radfunc>
<data npts="256">
  5.100288809176E+01  5.096944718311E+01  5.086967279706E+01  5.070385285568E+01
  5.047462250154E+01  5.017551565027E+01  4.979805602466E+01  4.937090818682E+01
  4.884781160404E+01  4.829128277781E+01  4.767494790821E+01  4.701785890458E+01
  4.624100935154E+01  4.544917946085E+01  4.467735143627E+01  4.381118988088E+01
  4.284286361162E+01  4.195249148446E+01  4.098204389996E+01  3.992807813412E+01
  3.878782517631E+01  3.781217808790E+01  3.677955932105E+01  3.568995455538E+01
  3.454389785654E+01  3.334252393934E+01  3.208761186472E+01  3.111274461495E+01
  3.011042143466E+01  2.908215577085E+01  2.802968004542E+01  2.695493999959E+01
  2.586008550484E+01  2.474745781220E+01  2.361957331292E+01  2.247910398926E+01
  2.132885484086E+01  2.017173867387E+01  1.939798858689E+01  1.862341658334E+01
  1.784892973241E+01  1.707543736358E+01  1.630384707116E+01  1.553506074917E+01
  1.476997069593E+01  1.400945582629E+01  1.325437802806E+01  1.250557869691E+01
  1.176387548124E+01  1.103005926565E+01  1.030489141767E+01  9.589101319183E+00
  8.883384199416E+00  8.188399282784E+00  7.504768260342E+00  6.833074089823E+00
  6.173860125160E+00  5.527629572725E+00  4.894845268085E+00  4.275929763875E+00
  3.671265716672E+00  3.081196558228E+00  2.506027434509E+00  1.946026394213E+00
  1.401425807202E+00  8.724239923791E-01  3.591870338265E-01  1.085239476493E-01
 -1.381492362034E-01 -3.808199163278E-01 -6.194771090902E-01 -8.541113757089E-01
 -1.084714747828E+00 -1.311280651937E+00 -1.533803832490E+00 -1.752280274298E+00
 -1.966707123932E+00 -2.177082610499E+00 -2.383405966097E+00 -2.585677345662E+00
 -2.783897746799E+00 -2.978068929481E+00 -3.168193335812E+00 -3.354274010043E+00
 -3.536314518887E+00 -3.714318872359E+00 -3.888291445172E+00 -4.058236898907E+00
 -4.224160105046E+00 -4.386066069000E+00 -4.543959855312E+00 -4.697846514196E+00
 -4.847731009595E+00 -4.993618148997E+00 -5.135512515317E+00 -5.273418401179E+00
 -5.407339746055E+00 -5.537280076850E+00 -5.663242452637E+00 -5.785229414458E+00
 -5.903242941311E+00 -6.017284413720E+00 -6.127354586572E+00 -6.233453573194E+00
 -6.335580843073E+00 -6.433735235886E+00 -6.527914994880E+00 -6.618117822895E+00
 -6.704340964524E+00 -6.786581317906E+00 -6.864835579448E+00 -6.939100424376E+00
 -7.009372725144E+00 -7.075649808607E+00 -7.137929751208E+00 -7.196211709452E+00
 -7.250496280497E+00 -7.300785885005E+00 -7.347085161662E+00 -7.389401360091E+00
 -7.427744716731E+00 -7.462128796784E+00 -7.492570785142E+00 -7.519091710274E+00
 -7.541716587817E+00 -7.560474475046E+00 -7.575398433139E+00 -7.586525401041E+00
 -7.593895991924E+00 -7.597554230090E+00 -7.597547251804E+00 -7.593924997224E+00
 -7.586739921907E+00 -7.576046754896E+00 -7.561902326499E+00 -7.544365482923E+00
 -7.523497097504E+00 -7.499360180660E+00 -7.472020083105E+00 -7.441544780565E+00
 -7.408005223238E+00 -7.371475729971E+00 -7.332034405457E+00 -7.289763558411E+00
 -7.244750099515E+00 -7.197085899437E+00 -7.146868089401E+00 -7.094199289261E+00
 -7.039187750926E+00 -6.981947408163E+00 -6.922597827328E+00 -6.861264057453E+00
 -6.798076382213E+00 -6.733169980550E+00 -6.666684506884E+00 -6.598763605719E+00
 -6.529554378797E+00 -6.459206825498E+00 -6.387873278977E+00 -6.315707861187E+00
 -6.242865979787E+00 -6.169503888783E+00 -6.095778332788E+00 -6.021846292121E+00
 -5.947864842585E+00 -5.873991139748E+00 -5.800382532790E+00 -5.727196807441E+00
 -5.654592550946E+00 -5.582729624242E+00 -5.511769717381E+00 -5.441876953486E+00
 -5.373218494090E+00 -5.305965084548E+00 -5.240291462699E+00 -5.176376191310E+00
 -5.114405123543E+00 -5.053864607890E+00 -4.994024019340E+00 -4.934905417112E+00
 -4.876486844710E+00 -4.818758693505E+00 -4.761707782303E+00 -4.705322841393E+00
 -4.649593586921E+00 -4.594510842110E+00 -4.540066501196E+00 -4.486253452436E+00
 -4.433065459890E+00 -4.380497009388E+00 -4.328543126136E+00 -4.277199174583E+00
 -4.226460652090E+00 -4.176322989453E+00 -4.126781371608E+00 -4.077830591109E+00