<?xml version="1.0" encoding="UTF-8" ?>
<psml version="1.1" energy_unit="hartree" length_unit="bohr"
 uuid="548394d0-44bc-11e8-4eec-b97effbd72e7"
 xmlns="http://esl.cecam.org/PSML/ns/1.1">
<provenance creator="ONCVPSP-3.3.0+psml-3.3.0-73 (fully-relativistic)"
 date="2018-04-20">
<annotation action="semilocal-pseudopotential-generation"
 action-cont="projectors-generation" />
<input-file name="oncvpsp-input">
<![CDATA[# atsym z nc nv iexc psfile
Nb 41 6 4 4 both
# n l f
1 0 2.0
2 0 2.0
2 1 6.0
3 0 2.0
3 1 6.0
3 2 10.0
4 0 2.0
4 1 6.0
4 2 4.0
5 0 1.0
# lmax
2
# l rc ep ncon nbas qcut
0 1.5 0.0 4 7 7.8
1 1.4 0.0 4 7 9.0
2 1.4 0.0 4 7 9.2
# lloc lpopt rc5 dvloc0
4 5 1.25 0.0
# l nproj debl
0 2 1.0
1 2 1.8
2 2 1.5
# icmod fcfact rcfact
3 5.0 1.5
# epsh1 epsh2 depsh
-12.0 12.0 0.02
# rlmax drl
6.0 0.01
 0
]]>
</input-file>
</provenance>
<pseudo-atom-spec atomic-label="Nb" atomic-number="41" z-pseudo="13"
 flavor="Hamann&apos;s oncvpsp" relativity="dirac" spin-dft="no"
 core-corrections="yes">
<annotation pseudo-energy="-57.0699988069" />
<exchange-correlation>
<annotation oncvpsp-xc-code="4" oncvpsp-xc-type="GGA -- Perdew-Burke-Ernzerhof" />
<libxc-info number-of-functionals="2">
<functional name="Perdew, Burke &amp; Ernzerhof (GGA)" type="exchange" id="101" />
<functional name="Perdew, Burke &amp; Ernzerhof (GGA)" type="correlation"
 id="130" />
</libxc-info>
</exchange-correlation>
<valence-configuration total-valence-charge="13">
<shell n="4" l="s" occupation="2" />
<shell n="4" l="p" occupation="6" />
<shell n="4" l="d" occupation="4" />
<shell n="5" l="s" occupation="1" />
</valence-configuration>
</pseudo-atom-spec>
<grid npts="457">
<annotation type="sampled from oncvpsp log grid"
 recipe="r(i:1..N) = r1*exp(a*(i-1)) + r=0; resampled"
 recipe-cont="r1: scale; a: step" scale="0.121951219512E-04"
 step="0.119285708653E-01" delta="0.500000000000E-02" rmax="44.1280744696" />
<grid-data>
  0.000000000000E+00  5.039007004218E-03  1.006502104386E-02  1.509913653849E-02
  2.010408966061E-02  2.521820379404E-02  3.052125238152E-02  3.564092875491E-02
  4.112587609116E-02  4.633618645073E-02  5.158754969678E-02  5.675302309559E-02
  6.243571655217E-02  6.787294410245E-02  7.290876853877E-02  7.831822532726E-02
  8.412903607266E-02  8.929938654214E-02  9.478749322547E-02  1.006128845883E-01
  1.067962892646E-01  1.120155235337E-01  1.174898266497E-01  1.232316640651E-01
  1.292541104306E-01  1.355708793673E-01  1.421963546938E-01  1.473770980033E-01
  1.527465951054E-01  1.583117230044E-01  1.640796092595E-01  1.700576411136E-01
  1.762534749543E-01  1.826750461198E-01  1.893305790625E-01  1.962285978822E-01
  2.033779372432E-01  2.107877536900E-01  2.158770132150E-01  2.210891478221E-01
  2.264271242071E-01  2.318939806940E-01  2.374928289639E-01  2.432268558264E-01
  2.490993250334E-01  2.551135791370E-01  2.612730413917E-01  2.675812177031E-01
  2.740416986233E-01  2.806581613949E-01  2.874343720436E-01  2.943741875222E-01
  3.014815579057E-01  3.087605286398E-01  3.162152428433E-01  3.238499436665E-01
  3.316689767064E-01  3.396767924800E-01  3.478779489576E-01  3.562771141573E-01
  3.648790688015E-01  3.736887090386E-01  3.827110492296E-01  3.919512248022E-01
  4.014144951739E-01  4.111062467454E-01  4.210319959668E-01  4.260843799184E-01
  4.311973924774E-01  4.363717611871E-01  4.416082223214E-01  4.469075209892E-01
  4.522704112411E-01  4.576976561760E-01  4.631900280501E-01  4.687483083867E-01
  4.743732880873E-01  4.800657675444E-01  4.858265567549E-01  4.916564754360E-01
  4.975563531412E-01  5.035270293789E-01  5.095693537315E-01  5.156841859762E-01
  5.218723962079E-01  5.281348649624E-01  5.344724833420E-01  5.408861531421E-01
  5.473767869798E-01  5.539453084236E-01  5.605926521246E-01  5.673197639501E-01
  5.741276011175E-01  5.810171323309E-01  5.879893379189E-01  5.950452099739E-01
  6.021857524936E-01  6.094119815236E-01  6.167249253018E-01  6.241256244055E-01
  6.316151318983E-01  6.391945134811E-01  6.468648476429E-01  6.546272258146E-01
  6.624827525244E-01  6.704325455547E-01  6.784777361013E-01  6.866194689345E-01
  6.948589025618E-01  7.031972093925E-01  7.116355759052E-01  7.201752028161E-01
  7.288173052499E-01  7.375631129129E-01  7.464138702678E-01  7.553708367110E-01
  7.644352867516E-01  7.736085101926E-01  7.828918123149E-01  7.922865140627E-01
  8.017939522314E-01  8.114154796582E-01  8.211524654141E-01  8.310062949991E-01
  8.409783705390E-01  8.510701109855E-01  8.612829523173E-01  8.716183477452E-01
  8.820777679181E-01  8.926627011331E-01  9.033746535467E-01  9.142151493893E-01
  9.251857311819E-01  9.362879599561E-01  9.475234154756E-01  9.588936964613E-01
  9.704004208188E-01  9.820452258687E-01  9.938297685791E-01  1.005755725802E+00
  1.017824794512E+00  1.030038692046E+00  1.042399156350E+00  1.054907946227E+00
  1.067566841581E+00  1.080377643680E+00  1.093342175404E+00  1.106462281509E+00
  1.119739828887E+00  1.133176706834E+00  1.146774827316E+00  1.160536125244E+00
  1.174462558747E+00  1.188556109452E+00  1.202818782765E+00  1.217252608158E+00
  1.231859639456E+00  1.246641955130E+00  1.261601658591E+00  1.276740878494E+00
  1.292061769036E+00  1.307566510265E+00  1.323257308388E+00  1.339136396089E+00
  1.355206032842E+00  1.371468505236E+00  1.387926127299E+00  1.404581240826E+00
  1.421436215716E+00  1.438493450305E+00  1.455755371708E+00  1.473224436169E+00
  1.490903129403E+00  1.508793966956E+00  1.526899494559E+00  1.545222288494E+00
  1.563764955956E+00  1.582530135427E+00  1.601520497052E+00  1.620738743017E+00
  1.640187607933E+00  1.659869859228E+00  1.679788297539E+00  1.699945757110E+00
  1.720345106195E+00  1.740989247469E+00  1.761881118439E+00  1.783023691860E+00
  1.804419976162E+00  1.826073015876E+00  1.847985892067E+00  1.870161722772E+00
  1.892603663445E+00  1.915314907406E+00  1.938298686295E+00  1.961558270531E+00
  1.985096969777E+00  2.008918133414E+00  2.033025151015E+00  2.057421452828E+00
  2.082110510262E+00  2.107095836385E+00  2.132380986421E+00  2.157969558258E+00
  2.183865192957E+00  2.210071575273E+00  2.236592434176E+00  2.263431543386E+00
  2.290592721907E+00  2.318079834570E+00  2.345896792585E+00  2.374047554096E+00
  2.402536124745E+00  2.431366558242E+00  2.460542956941E+00  2.490069472424E+00
  2.519950306093E+00  2.550189709766E+00  2.580791986283E+00  2.611761490119E+00
  2.643102628000E+00  2.674819859536E+00  2.706917697851E+00  2.739400710225E+00
  2.772273518748E+00  2.805540800972E+00  2.839207290584E+00  2.873277778071E+00
  2.907757111408E+00  2.942650196745E+00  2.977961999106E+00  3.013697543095E+00
  3.049861913612E+00  3.086460256576E+00  3.123497779655E+00  3.160979753010E+00
  3.198911510046E+00  3.237298448167E+00  3.276146029545E+00  3.315459781900E+00
  3.355245299282E+00  3.395508242874E+00  3.436254341788E+00  3.477489393890E+00
  3.519219266616E+00  3.561449897816E+00  3.604187296590E+00  3.647437544149E+00
  3.691206794678E+00  3.735501276215E+00  3.780327291529E+00  3.825691219028E+00
  3.871599513656E+00  3.918058707820E+00  3.965075412314E+00  4.012656317261E+00
  4.060808193068E+00  4.109537891385E+00  4.158852346082E+00  4.208758574235E+00
  4.259263677126E+00  4.310374841251E+00  4.362099339346E+00  4.414444531418E+00
  4.467417865795E+00  4.521026880185E+00  4.575279202747E+00  4.630182553180E+00
  4.685744743818E+00  4.741973680744E+00  4.798877364913E+00  4.856463893292E+00
  4.914741460011E+00  4.973718357532E+00  5.033402977822E+00  5.093803813556E+00
  5.154929459319E+00  5.216788612830E+00  5.279390076184E+00  5.342742757099E+00
  5.406855670184E+00  5.471737938226E+00  5.537398793485E+00  5.603847579006E+00
  5.671093749955E+00  5.739146874954E+00  5.808016637453E+00  5.877712837103E+00
  5.948245391148E+00  6.019624335842E+00  6.091859827872E+00  6.164962145806E+00
  6.238941691556E+00  6.313808991855E+00  6.389574699757E+00  6.466249596154E+00
  6.543844591308E+00  6.622370726404E+00  6.701839175121E+00  6.782261245222E+00
  6.863648380165E+00  6.946012160727E+00  7.029364306655E+00  7.113716678335E+00
  7.199081278475E+00  7.285470253817E+00  7.372895896863E+00  7.461370647625E+00
  7.550907095397E+00  7.641517980541E+00  7.733216196308E+00  7.826014790664E+00
  7.919926968152E+00  8.014966091769E+00  8.111145684871E+00  8.208479433089E+00
  8.306981186286E+00  8.406664960521E+00  8.507544940048E+00  8.609635479328E+00
  8.712951105080E+00  8.817506518341E+00  8.923316596561E+00  9.030396395720E+00
  9.138761152469E+00  9.248426286298E+00  9.359407401734E+00  9.471720290555E+00
  9.585380934041E+00  9.700405505250E+00  9.816810371313E+00  9.934612095769E+00
  1.005382744092E+01  1.017447337021E+01  1.029656705065E+01  1.042012585526E+01
  1.054516736552E+01  1.067170937391E+01  1.079976988640E+01  1.092936712503E+01
  1.106051953053E+01  1.119324576490E+01  1.132756471408E+01  1.146349549065E+01
  1.160105743653E+01  1.174027012577E+01  1.188115336728E+01  1.202372720769E+01
  1.216801193418E+01  1.231402807739E+01  1.246179641432E+01  1.261133797129E+01
  1.276267402695E+01  1.291582611527E+01  1.307081602865E+01  1.322766582100E+01
  1.338639781085E+01  1.354703458458E+01  1.370959899960E+01  1.387411418759E+01
  1.404060355784E+01  1.420909080054E+01  1.437959989014E+01  1.455215508882E+01
  1.472678094989E+01  1.490350232129E+01  1.508234434914E+01  1.526333248133E+01
  1.544649247111E+01  1.563185038076E+01  1.581943258533E+01  1.600926577636E+01
  1.620137696567E+01  1.639579348926E+01  1.659254301113E+01  1.679165352727E+01
  1.699315336959E+01  1.719707121003E+01  1.740343606455E+01  1.761227729732E+01
  1.782362462489E+01  1.803750812039E+01  1.825395821783E+01  1.847300571645E+01
  1.869468178505E+01  1.891901796647E+01  1.914604618206E+01  1.937579873625E+01
  1.960830832108E+01  1.984360802094E+01  2.008173131719E+01  2.032271209299E+01
  2.056658463811E+01  2.081338365377E+01  2.106314425761E+01  2.131590198870E+01
  2.157169281257E+01  2.183055312632E+01  2.209251976383E+01  2.235763000100E+01
  2.262592156101E+01  2.289743261974E+01  2.317220181118E+01  2.345026823292E+01
  2.373167145171E+01  2.401645150913E+01  2.430464892724E+01  2.459630471437E+01
  2.489146037094E+01  2.519015789539E+01  2.549243979014E+01  2.579834906762E+01
  2.610792925643E+01  2.642122440751E+01  2.673827910040E+01  2.705913844960E+01
  2.738384811100E+01  2.771245428833E+01  2.804500373979E+01  2.838154378467E+01
  2.872212231008E+01  2.906678777780E+01  2.941558923114E+01  2.976857630191E+01
  3.012579921753E+01  3.048730880814E+01  3.085315651384E+01  3.122339439201E+01
  3.159807512471E+01  3.197725202621E+01  3.236097905052E+01  3.274931079913E+01
  3.314230252872E+01  3.354001015906E+01  3.394249028097E+01  3.434980016434E+01
  3.476199776632E+01  3.517914173951E+01  3.560129144039E+01  3.602850693767E+01
  3.646084902092E+01  3.689837920917E+01  3.734115975968E+01  3.778925367680E+01
  3.824272472092E+01  3.870163741757E+01  3.916605706658E+01  3.963604975138E+01
  4.011168234840E+01  4.059302253658E+01  4.108013880702E+01  4.157310047270E+01
  4.207197767837E+01  4.257684141052E+01  4.308776350744E+01  4.360481666953E+01
  4.412807446957E+01
</grid-data>
</grid>
<valence-charge total-charge="13" is-unscreening-charge="yes"
 rescaled-to-z-pseudo="no">
<radfunc>
<data npts="457">
  4.981845267144E-02  5.003814241793E-02  5.069547803739E-02  5.179417224233E-02
  5.332595797038E-02  5.534757408717E-02  5.793641734953E-02  6.091782618931E-02
  6.464579193281E-02  6.870772054085E-02  7.332524053782E-02  7.839108649232E-02
  8.457868117829E-02  9.111720593588E-02  9.772678624495E-02  1.054364223442E-01
  1.144421894994E-01  1.231051125174E-01  1.329908078284E-01  1.442867010940E-01
  1.572121973218E-01  1.688974469051E-01  1.819418226490E-01  1.965189232305E-01
  2.128268850726E-01  2.310921077315E-01  2.515735437627E-01  2.685657701001E-01
  2.871111665730E-01  3.073655490601E-01  3.295015126442E-01  3.537102449226E-01
  3.802035087802E-01  4.092158011978E-01  4.410066919005E-01  4.758633417517E-01
  5.141031954741E-01  5.560768361803E-01  5.863229802991E-01  6.185237920840E-01
  6.528115766124E-01  6.893272216580E-01  7.282206124145E-01  7.696510376762E-01
  8.137875808281E-01  8.608094877410E-01  9.109065022398E-01  9.642791582156E-01
  1.021139015658E+00  1.081708825899E+00  1.146222609171E+00  1.214925625159E+00
  1.288074214645E+00  1.365935487496E+00  1.448786829265E+00  1.536915195514E+00
  1.630616159662E+00  1.730192676845E+00  1.835953522887E+00  1.948211364268E+00
  2.067280411938E+00  2.193473609190E+00  2.327099301722E+00  2.468457336742E+00
  2.617834537759E+00  2.775499502874E+00  2.941696677311E+00  3.028062996082E+00
  3.116639656053E+00  3.207447305239E+00  3.300503680171E+00  3.395823325663E+00
  3.493417301356E+00  3.593292875162E+00  3.695453203779E+00  3.799897000577E+00
  3.906618191257E+00  4.015605557811E+00  4.126842371446E+00  4.240306015291E+00
  4.355967597853E+00  4.473791558370E+00  4.593735265403E+00  4.715748610180E+00
  4.839773596446E+00  4.965743928779E+00  5.093584601568E+00  5.223211491099E+00
  5.354530953435E+00  5.487439431069E+00  5.621823071554E+00  5.757557361634E+00
  5.894506780639E+00  6.032524477212E+00  6.171451973683E+00  6.311118902699E+00
  6.451342780948E+00  6.591928825072E+00  6.732669815088E+00  6.873346010803E+00
  7.013725126922E+00  7.153562372627E+00  7.292600561510E+00  7.430570297792E+00
  7.567190244698E+00  7.702167480804E+00  7.835197949985E+00  7.965967010361E+00
  8.094150087303E+00  8.219413435136E+00  8.341415011636E+00  8.459805468804E+00
  8.574229262614E+00  8.684325883582E+00  8.789731209018E+00  8.890078976664E+00
  8.985002378234E+00  9.074135769960E+00  9.157116495794E+00  9.233586817312E+00
  9.303195942689E+00  9.365602145297E+00  9.420474960679E+00  9.467497448700E+00
  9.506368505781E+00  9.536805210161E+00  9.558545181268E+00  9.571348932399E+00
  9.575002194220E+00  9.569318184967E+00  9.554139801859E+00  9.529341707032E+00
  9.494832280422E+00  9.450555411452E+00  9.396492101166E+00  9.332661846660E+00
  9.259123780334E+00  9.175977537617E+00  9.083363828491E+00  8.981464690325E+00
  8.870503402305E+00  8.750744044995E+00  8.622490692448E+00  8.486086228573E+00
  8.341910784304E+00  8.190379797336E+00  8.031941701734E+00  7.867075260533E+00
  7.696286560435E+00  7.520105693632E+00  7.339083157737E+00  7.153786010388E+00
  6.964793820404E+00  6.772694462048E+00  6.578079803041E+00  6.381541340196E+00
  6.183665838840E+00  5.985031033480E+00  5.786201447289E+00  5.587724387015E+00
  5.390126167788E+00  5.193908619145E+00  4.999545919376E+00  4.807481799691E+00
  4.618127153397E+00  4.431858078459E+00  4.249014374481E+00  4.069898507570E+00
  3.894775427230E+00  3.723874426364E+00  3.557392369077E+00  3.395495068843E+00
  3.238317842110E+00  3.085966960832E+00  2.938521223809E+00  2.796034530989E+00
  2.658539031810E+00  2.526046482571E+00  2.398549634694E+00  2.276023624724E+00
  2.158427366871E+00  2.045704934549E+00  1.937786922322E+00  1.834591782065E+00
  1.736027125376E+00  1.641990986803E+00  1.552373042577E+00  1.467055780365E+00
  1.385915616274E+00  1.308823956076E+00  1.235648198214E+00  1.166252676844E+00
  1.100499543703E+00  1.038249588172E+00  9.793629953987E-01  9.237000428094E-01
  8.711217357742E-01  8.214903835629E-01  7.746701170736E-01  7.305273501178E-01
  6.889311863051E-01  6.497537737903E-01  6.128706103331E-01  5.781608012655E-01
  5.455072730764E-01  5.147969454043E-01  4.859208642791E-01  4.587742994763E-01
  4.332568088416E-01  4.092722724176E-01  3.867288991576E-01  3.655392089214E-01
  3.456199923831E-01  3.268922514089E-01  3.092811222574E-01  2.927157839206E-01
  2.771293537522E-01  2.624587723983E-01  2.486446799063E-01  2.356312847454E-01
  2.233662273322E-01  2.118004395137E-01  2.008880013287E-01  1.905859962351E-01
  1.808543658690E-01  1.716557652845E-01  1.629554195100E-01  1.547209821579E-01
  1.469223967244E-01  1.395317611307E-01  1.325231959717E-01  1.258727168645E-01
  1.195581112170E-01  1.135588196753E-01  1.078558224454E-01  1.024315306345E-01
  9.726968270727E-02  9.235524610350E-02  8.767432403067E-02  8.321406740168E-02
  7.896259186047E-02  7.490889980838E-02  7.104280732009E-02  6.735487581738E-02
  6.383634835152E-02  6.047909033124E-02  5.727553452197E-02  5.421863013418E-02
  5.130179581265E-02  4.851887633553E-02  4.586410283088E-02  4.333205631899E-02
  4.091763439115E-02  3.861602083944E-02  3.642265805654E-02  3.433322203088E-02
  3.234359976798E-02  3.044986897638E-02  2.864827986287E-02  2.693523888884E-02
  2.530729434641E-02  2.376112361929E-02  2.229352199925E-02  2.090139293496E-02
  1.958173959474E-02  1.833165762959E-02  1.714832902725E-02  1.602901695177E-02
  1.497106146809E-02  1.397187605014E-02  1.302894478451E-02  1.213982017511E-02
  1.130212146478E-02  1.051353339211E-02  9.771805307391E-03  9.074750576087E-03
  8.420246204281E-03  7.806232625837E-03  7.230713597190E-03  6.691756151593E-03
  6.187490570735E-03  5.716110337628E-03  5.275872040487E-03  4.865095202924E-03
  4.482162021082E-03  4.125516993256E-03  3.793666432077E-03  3.485177853430E-03
  3.198679239895E-03  2.932858179686E-03  2.686460884745E-03  2.458291093939E-03
  2.247208869116E-03  2.052129293213E-03  1.872021080682E-03  1.705905111195E-03
  1.552852898005E-03  1.411985002487E-03  1.282469406271E-03  1.163519852058E-03
  1.054394163764E-03  9.543925559826E-04  8.628559420356E-04  7.791642490752E-04
  7.027347478245E-04  6.330204036499E-04  5.695082547551E-04  5.117178224024E-04
  4.591995572141E-04  4.115333248057E-04  3.683269332650E-04  3.292147043249E-04
  2.938560894928E-04  2.619343318955E-04  2.331551741740E-04  2.072456124242E-04
  1.839526959065E-04  1.630423720499E-04  1.442983761298E-04  1.275211649086E-04
  1.125268934718E-04  9.914643447043E-05  8.722443897948E-05  7.661843819127E-05
  6.719798518407E-05  5.884383602273E-05  5.144716946515E-05  4.490884455694E-05
  3.913869539652E-05  3.405486234406E-05  2.958315892817E-05  2.565647367641E-05
  2.221420606003E-05  1.920173570132E-05  1.656992394585E-05  1.427464685363E-05
  1.227635861414E-05  1.053968434292E-05  9.033041173141E-06  7.728286515758E-06
  6.600392327752E-06  5.627144200554E-06  4.788864060440E-06  4.068155260087E-06
  3.449668835619E-06  2.919889706334E-06  2.466941604596E-06  2.080409540716E-06
  1.751178631545E-06  1.471288151263E-06  1.233799697839E-06  1.032678408145E-06
  8.626861979101E-07  7.192860489752E-07  5.985564148135E-07  4.971148654232E-07
  4.120501437789E-07  3.408618574698E-07  2.814070804226E-07  2.318531902245E-07
  1.906363161125E-07  1.564248208279E-07  1.280872859600E-07  1.046645148698E-07
  8.534510963283E-08  6.944421851307E-08  5.638508820889E-08  4.568309043270E-08
  3.693192529952E-08  2.979173451348E-08  2.397888550670E-08  1.925721356338E-08
  1.543053263995E-08  1.233624716505E-08  9.839916679567E-09  7.830642871691E-09
  6.217164494598E-09  4.924559946048E-09  3.891470062416E-09  3.067765053896E-09
  2.412589600485E-09  1.892729052575E-09  1.481247543819E-09  1.156355729528E-09
  9.004719076929E-10  6.994455514570E-10  5.419168650246E-10  4.187899463194E-10
  3.228005696258E-10  2.481625541476E-10  1.902792180422E-10  1.455085845009E-10
  1.109728539243E-10  8.440422624718E-11  6.402048739208E-11  4.842489673925E-11
  3.652585768032E-11  2.747264629257E-11  2.060413585003E-11  1.540800809993E-11
  1.148840625711E-11  8.540339324803E-12  5.082664439098E-12  1.466844027312E-12
  1.056383123473E-12  7.580007692970E-13  5.418881780998E-13  3.859423762999E-13
  2.738348346779E-13  1.935480453162E-13  1.362708402694E-13  9.556768283101E-14
  6.675638824066E-14  4.644379295686E-14  3.218064636259E-14  2.220613519460E-14
  1.525952332635E-14  1.044184152738E-14  7.114747200353E-15  4.826873600900E-15
  3.260423498045E-15  2.192608126697E-15  1.467925258125E-15  9.783167868829E-16
  6.490290566772E-16  4.285820646157E-16  2.816857746203E-16  1.842605932327E-16
  1.199532166927E-16  7.771022523684E-17  5.009633038214E-17  3.213434547854E-17
  2.050892179331E-17  1.302265661000E-17  8.226464350889E-18  5.169600889931E-18
  3.231497251263E-18  2.009212925387E-18  1.242497769379E-18  7.641603548662E-19
  4.673734365824E-19  2.842531260835E-19  1.719011921543E-19  1.033606667334E-19
  6.178805019253E-20  3.671944345819E-20  2.169198848376E-20  1.273747078868E-20
  7.433889353262E-21  4.311874665206E-21  2.485426730010E-21  1.423599190351E-21
  8.102024414391E-22  0.000000000000E+00  0.000000000000E+00  0.000000000000E+00
  0.000000000000E+00
</data>
</radfunc>
</valence-charge>
<pseudocore-charge matching-radius="0.792286514063"
 number-of-continuous-derivatives="4">
<annotation model-charge-form="Teter function with specified parameters" />
<radfunc>
<data npts="290">
  4.757145992393E+01  4.756875788008E+01  4.756068045634E+01  4.754720418338E+01
  4.752846680046E+01  4.750382779611E+01  4.747242348447E+01  4.743645975772E+01
  4.739179010066E+01  4.734348966130E+01  4.728904109183E+01  4.722985235927E+01
  4.715830982146E+01  4.708357982538E+01  4.700891504039E+01  4.692289752729E+01
  4.682382553577E+01  4.672989561216E+01  4.662427692793E+01  4.650554503281E+01
  4.637210998283E+01  4.625359116423E+01  4.612353269023E+01  4.598084701216E+01
  4.582435164477E+01  4.565276249034E+01  4.546468705515E+01  4.531190891102E+01
  4.514833091904E+01  4.497323223381E+01  4.478585044466E+01  4.458538021740E+01
  4.437097207580E+01  4.414173136422E+01  4.389671743987E+01  4.363494314990E+01
  4.335537465733E+01  4.305693168815E+01  4.284692970254E+01  4.262769490687E+01
  4.239887414057E+01  4.216010604320E+01  4.191102144933E+01  4.165124386614E+01
  4.138039004220E+01  4.109807063578E+01  4.080389099201E+01  4.049745203855E+01
  4.017835130976E+01  3.984618411002E+01  3.950054482719E+01  3.914102840736E+01
  3.876723200262E+01  3.837875680348E+01  3.797521006778E+01  3.755620735786E+01
  3.712137499750E+01  3.667035275957E+01  3.620279679499E+01  3.571838281237E+01
  3.521680951652E+01  3.469780231265E+01  3.416111728070E+01  3.360654542230E+01
  3.303391717931E+01  3.244310721997E+01  3.183403948423E+01  3.152264995157E+01
  3.120669247506E+01  3.088617379851E+01  3.056110477712E+01  3.023150056046E+01
  2.989738077799E+01  2.955876972657E+01  2.921569655971E+01  2.886819547805E+01
  2.851630592084E+01  2.816007275769E+01  2.779954648025E+01  2.743478339323E+01
  2.706584580410E+01  2.669280221086E+01  2.631572748725E+01  2.593470306445E+01
  2.554981710878E+01  2.516116469426E+01  2.476884796935E+01  2.437297631680E+01
  2.397366650567E+01  2.357104283445E+01  2.316523726419E+01  2.275638954048E+01
  2.234464730308E+01  2.193016618196E+01  2.151310987842E+01  2.109365023005E+01
  2.067196725800E+01  2.024824919525E+01  1.982269249445E+01  1.939550181375E+01
  1.896688997924E+01  1.853707792240E+01  1.810629459108E+01  1.767477683247E+01
  1.724276924661E+01  1.681052400890E+01  1.637830066007E+01  1.594636586241E+01
  1.551499312070E+01  1.508446246663E+01  1.465506010549E+01  1.422707802410E+01
  1.380081355882E+01  1.337656892299E+01  1.295465069296E+01  1.253536925231E+01
  1.211903819378E+01  1.170597367894E+01  1.129649375569E+01  1.089091763391E+01
  1.048956492004E+01  1.009275481144E+01  9.700805251908E+00  9.314032049950E+00
  8.932747961847E+00  8.557261741839E+00  8.187877162266E+00  7.824892006851E+00
  7.468597040739E+00  7.119274961393E+00  6.777199334827E+00  6.442633522166E+00
  6.115829601925E+00  5.797027293870E+00  5.486452890741E+00  5.184318204527E+00
  4.890819534396E+00  4.606136663703E+00  4.330431893874E+00  4.063849123199E+00
  3.806512978815E+00  3.558528010330E+00  3.319977953624E+00  3.090925073396E+00
  2.871409592946E+00  2.661449219554E+00  2.461038773515E+00  2.270149928576E+00
  2.088731070987E+00  1.916707283837E+00  1.753980462564E+00  1.600429566733E+00
  1.455911012164E+00  1.320259206410E+00  1.193287229372E+00  1.074787659425E+00
  9.645335441239E-01  8.622795128345E-01  7.677630271331E-01  6.807057630502E-01
  6.008151175043E-01  5.277858294885E-01  4.613017048006E-01  4.010374313565E-01
  3.466604704416E-01  2.978330076610E-01  2.542139458860E-01  2.154609211926E-01
  1.812323216936E-01  1.511892883060E-01  1.249976759097E-01  1.023299530792E-01
  8.286701862540E-02  6.629991360856E-02  5.233140828497E-02  4.067744464846E-02
  3.106841682438E-02  2.325027356730E-02  1.698542948817E-02  1.205347436872E-02
  8.251672974820E-03  5.395251108044E-03  3.317467179354E-03  1.869472279737E-03
  9.199654818897E-04  3.546548468686E-04  7.553823612629E-05  2.144423903835E-08
  5.989427127513E-05  2.001878481291E-04  3.779387204927E-04  5.608868036350E-04
  7.261352697753E-04  8.588006680648E-04  9.506810696594E-04  9.989687659046E-04
  1.005032040804E-03  9.732878316490E-04  9.101837538726E-04  8.233040953296E-04
  7.206101042089E-04  6.098203490816E-04  4.979322820174E-04  3.908815608101E-04
  2.933313629606E-04  2.085800271697E-04  1.385720500924E-04  8.399488788069E-05
  4.444227438021E-05  1.862394380829E-05  4.601764493617E-06  3.333298758868E-08
  2.405976231702E-06  9.246747057045E-06  1.829721516559E-05  2.764545626366E-05
  3.581140564181E-05  4.178543708493E-05  4.502342492342E-05  4.540443708942E-05
  4.315941598488E-05  3.878060644883E-05  3.292202062043E-05  2.630088917882E-05
  1.960890677020E-05  1.344027014271E-05  8.241218642876E-06  4.283245232326E-06
  1.659598058653E-06  3.023802165961E-07  1.569390801788E-08  5.190310331134E-07
  1.494584878713E-06  2.632368456194E-06  3.667914261959E-06  4.408762388348E-06
  4.747723105809E-06  4.662792770756E-06  4.205365569297E-06  3.479797197614E-06
  2.618269825954E-06  1.755184320929E-06  1.004957285864E-06  4.462082095742E-07
  1.140453190400E-07  7.116699135040E-10  0.000000000000E+00  0.000000000000E+00
  0.000000000000E+00  0.000000000000E+00  0.000000000000E+00  0.000000000000E+00
  0.000000000000E+00  0.000000000000E+00  0.000000000000E+00  0.000000000000E+00
  0.000000000000E+00  0.000000000000E+00  0.000000000000E+00  0.000000000000E+00
  0.000000000000E+00  0.000000000000E+00  0.000000000000E+00  0.000000000000E+00
  0.000000000000E+00  0.000000000000E+00  0.000000000000E+00  0.000000000000E+00
  0.000000000000E+00  0.000000000000E+00  0.000000000000E+00  0.000000000000E+00
  0.000000000000E+00  0.000000000000E+00  0.000000000000E+00  0.000000000000E+00
  0.000000000000E+00  0.000000000000E+00  0.000000000000E+00  0.000000000000E+00
  0.000000000000E+00  0.000000000000E+00  0.000000000000E+00  0.000000000000E+00
  0.000000000000E+00  0.000000000000E+00  0.000000000000E+00  0.000000000000E+00
  0.000000000000E+00  0.000000000000E+00
</data>
</radfunc>
</pseudocore-charge>
<semilocal-potentials set="scalar_relativistic">
<slps n="4" l="s" rc="1.50879396696">
<radfunc>
<data npts="290">
  6.857201943742E+01  6.850944415849E+01  6.832288702408E+01  6.801331204519E+01
  6.758632468264E+01  6.703086559090E+01  6.633261322980E+01  6.554607149427E+01
  6.458805850426E+01  6.357505713043E+01  6.246063199028E+01  6.128103632120E+01
  5.989765971286E+01  5.849995334327E+01  5.714939412030E+01  5.564750148606E+01
  5.398540828584E+01  5.247267630565E+01  5.084061129201E+01  4.908752693327E+01
  4.721332739072E+01  4.562786294258E+01  4.396777365114E+01  4.223576767459E+01
  4.043548015568E+01  3.857149015352E+01  3.664931416925E+01  3.517332821036E+01
  3.367123272106E+01  3.214630170000E+01  3.060203363139E+01  2.904212288180E+01
  2.747042721631E+01  2.589093201851E+01  2.430771191592E+01  2.272489060657E+01
  2.114659974990E+01  1.957693782138E+01  1.853728224693E+01  1.750441941480E+01
  1.647948879877E+01  1.546359834404E+01  1.445782023072E+01  1.346318698003E+01
  1.248068793300E+01  1.151126612585E+01  1.055581558066E+01  9.615179024427E+00
  8.690146043881E+00  7.781451678041E+00  6.889775445285E+00  6.015740796828E+00
  5.159914984077E+00  4.322809323306E+00  3.504879837610E+00  2.706528253132E+00
  1.928103324123E+00  1.169902459483E+00  4.321736220876E-01 -2.848825287357E-01
 -9.811102815866E-01 -1.656396334314E+00 -2.310667101963E+00 -2.943885900418E+00
 -3.556050033843E+00 -4.147187812907E+00 -4.717355529493E+00 -4.994600107453E+00
 -5.266634412113E+00 -5.533471994398E+00 -5.795127584828E+00 -6.051617000162E+00
 -6.302957050858E+00 -6.549165449537E+00 -6.790260720549E+00 -7.026262110780E+00
 -7.257189501819E+00 -7.483063323605E+00 -7.703904469661E+00 -7.919734214008E+00
 -8.130574129894E+00 -8.336446010384E+00 -8.537371790955E+00 -8.733373474140E+00
 -8.924473056338E+00 -9.110692456854E+00 -9.292053449256E+00 -9.468577595137E+00
 -9.640286180345E+00 -9.807200153779E+00 -9.969340068833E+00 -1.012672602756E+01
 -1.027937762767E+01 -1.042731391248E+01 -1.057055332384E+01 -1.070911365830E+01
 -1.084301202644E+01 -1.097226481588E+01 -1.109688765757E+01 -1.121689539614E+01
 -1.133230206414E+01 -1.144312086045E+01 -1.154936413327E+01 -1.165104336774E+01
 -1.174816917867E+01 -1.184075130855E+01 -1.192879863132E+01 -1.201231916208E+01
 -1.209132007335E+01 -1.216580771793E+01 -1.223578765910E+01 -1.230126470827E+01
 -1.236224297053E+01 -1.241872589847E+01 -1.247071635457E+01 -1.251821668231E+01
 -1.256122878638E+01 -1.259975422195E+01 -1.263379429321E+01 -1.266335016098E+01
 -1.268842295942E+01 -1.270901392157E+01 -1.272512451339E+01 -1.273675657603E+01
 -1.274391247581E+01 -1.274659526153E+01 -1.274480882870E+01 -1.273855809028E+01
 -1.272784915360E+01 -1.271268950354E+01 -1.269308819189E+01 -1.266905603340E+01
 -1.264060580925E+01 -1.260775247908E+01 -1.257051340328E+01 -1.252890857753E+01
 -1.248296088250E+01 -1.243269635162E+01 -1.237814446115E+01 -1.231933844661E+01
 -1.225631565072E+01 -1.218911790843E+01 -1.211779197487E+01 -1.204239000289E+01
 -1.196297007714E+01 -1.187959681164E+01 -1.179234201873E+01 -1.170128545664E+01
 -1.160651566348E+01 -1.150813088481E+01 -1.140624010181E+01 -1.130096416587E+01
 -1.119243704438E+01 -1.108080718106E+01 -1.096623897054E+01 -1.084891434621E+01