<?xml version="1.0" encoding="UTF-8" ?>
<psml version="1.1" energy_unit="hartree" length_unit="bohr"
 uuid="e725ca30-471c-11e8-6458-55edffdd840d"
 xmlns="http://esl.cecam.org/PSML/ns/1.1">
<provenance creator="ONCVPSP-3.3.0+psml-3.3.0-73 (fully-relativistic)"
 date="2018-04-23">
<annotation action="semilocal-pseudopotential-generation"
 action-cont="projectors-generation" />
<input-file name="oncvpsp-input">
<![CDATA[# atsym z nc nv iexc psfile
He 2 0 1 4 both
# n l f
1 0 2.0
# lmax
1
# l rc ep ncon nbas qcut
0 1.25 0.0 4 8 9.4
1 1.13 0.05 4 7 9.4
# lloc lpopt rc5 dvloc0
4 5 1.0 0.0
# l nproj debl
0 2 1.0
1 1 1.0
# icmod fcfact rcfact
0 0.25 0.0
# epsh1 epsh2 depsh
-12.0 12.0 0.02
# rlmax drl
6.0 0.01
 0
]]>
</input-file>
</provenance>
<pseudo-atom-spec atomic-label="He" atomic-number="2" z-pseudo="2"
 flavor="Hamann&apos;s oncvpsp" relativity="dirac" spin-dft="no"
 core-corrections="no">
<annotation pseudo-energy="-2.85847523497" />
<exchange-correlation>
<annotation oncvpsp-xc-code="4" oncvpsp-xc-type="GGA -- Perdew-Burke-Ernzerhof" />
<libxc-info number-of-functionals="2">
<functional name="Perdew, Burke &amp; Ernzerhof (GGA)" type="exchange" id="101" />
<functional name="Perdew, Burke &amp; Ernzerhof (GGA)" type="correlation"
 id="130" />
</libxc-info>
</exchange-correlation>
<valence-configuration total-valence-charge="2">
<shell n="1" l="s" occupation="2" />
</valence-configuration>
</pseudo-atom-spec>
<grid npts="457">
<annotation type="sampled from oncvpsp log grid"
 recipe="r(i:1..N) = r1*exp(a*(i-1)) + r=0; resampled"
 recipe-cont="r1: scale; a: step" scale="0.250000000000E-03"
 step="0.119285708653E-01" delta="0.500000000000E-02" rmax="44.2383759443" />
<grid-data>
  0.000000000000E+00  5.051602385059E-03  1.009017932864E-02  1.513687797741E-02
  2.015434136011E-02  2.528123861035E-02  3.059754257067E-02  3.573001596412E-02
  4.073979579344E-02  4.590119295367E-02  5.110325760530E-02  5.622023872390E-02
  6.184958435691E-02  6.723576846129E-02  7.309100954492E-02  7.851398768163E-02
  8.433932298996E-02  8.952259714325E-02  9.502442176619E-02  1.008643741373E-01
  1.070632347034E-01  1.122955148451E-01  1.177835013976E-01  1.235396909718E-01
  1.295771908995E-01  1.359097490801E-01  1.425517852856E-01  1.477454782566E-01
  1.531283968246E-01  1.587074351836E-01  1.644897387087E-01  1.704827131076E-01
  1.766940339056E-01  1.831316562762E-01  1.898038252291E-01  1.967190861709E-01
  2.038862958488E-01  2.113146336947E-01  2.164166142107E-01  2.216417769442E-01
  2.269930960067E-01  2.324736173167E-01  2.380864603332E-01  2.438348198315E-01
  2.497219677215E-01  2.557512549101E-01  2.619261132087E-01  2.682500572860E-01
  2.747266866691E-01  2.813596877920E-01  2.881528360941E-01  2.951099981688E-01
  3.022351339645E-01  3.095322990390E-01  3.170056468670E-01  3.246594312049E-01
  3.324980085119E-01  3.405258404295E-01  3.487474963208E-01  3.571676558720E-01
  3.657911117553E-01  3.746227723576E-01  3.836676645734E-01  3.929309366668E-01
  4.024178612017E-01  4.121338380425E-01  4.220843974282E-01  4.271494101974E-01
  4.322752031198E-01  4.374625055572E-01  4.427120556239E-01  4.480246002914E-01
  4.534008954949E-01  4.588417062408E-01  4.643478067157E-01  4.699199803963E-01
  4.755590201610E-01  4.812657284030E-01  4.870409171438E-01  4.928854081495E-01
  4.988000330473E-01  5.047856334439E-01  5.108430610452E-01  5.169731777778E-01
  5.231768559111E-01  5.294549781820E-01  5.358084379202E-01  5.422381391752E-01
  5.487449968454E-01  5.553299368075E-01  5.619938960492E-01  5.687378228018E-01
  5.755626766754E-01  5.824694287955E-01  5.894590619410E-01  5.965325706843E-01
  6.036909615326E-01  6.109352530709E-01  6.182664761078E-01  6.256856738211E-01
  6.331939019069E-01  6.407922287298E-01  6.484817354746E-01  6.562635163003E-01
  6.641386784959E-01  6.721083426378E-01  6.801736427495E-01  6.883357264625E-01
  6.965957551800E-01  7.049549042422E-01  7.134143630931E-01  7.219753354502E-01
  7.306390394756E-01  7.394067079493E-01  7.482795884447E-01  7.572589435061E-01
  7.663460508281E-01  7.755422034381E-01  7.848487098793E-01  7.942668943979E-01
  8.037980971306E-01  8.134436742962E-01  8.232049983878E-01  8.330834583684E-01
  8.430804598688E-01  8.531974253873E-01  8.634357944919E-01  8.737970240258E-01
  8.842825883141E-01  8.948939793739E-01  9.056327071264E-01  9.165002996119E-01
  9.274983032072E-01  9.386282828457E-01  9.498918222399E-01  9.612905241068E-01
  9.728260103960E-01  9.844999225208E-01  9.963139215910E-01  1.008269688650E+00
  1.020368924914E+00  1.032613352013E+00  1.045004712237E+00  1.057544768784E+00
  1.070235306009E+00  1.083078129681E+00  1.096075067238E+00  1.109227968044E+00
  1.122538703661E+00  1.136009168105E+00  1.149641278122E+00  1.163436973460E+00
  1.177398217141E+00  1.191526995747E+00  1.205825319696E+00  1.220295223532E+00
  1.234938766215E+00  1.249758031409E+00  1.264755127786E+00  1.279932189319E+00
  1.295291375591E+00  1.310834872098E+00  1.326564890564E+00  1.342483669250E+00
  1.358593473281E+00  1.374896594961E+00  1.391395354100E+00  1.408092098349E+00
  1.424989203530E+00  1.442089073972E+00  1.459394142860E+00  1.476906872574E+00
  1.494629755045E+00  1.512565312105E+00  1.530716095851E+00  1.549084689001E+00
  1.567673705269E+00  1.586485789732E+00  1.605523619209E+00  1.624789902639E+00
  1.644287381471E+00  1.664018830049E+00  1.683987056009E+00  1.704194900681E+00
  1.724645239490E+00  1.745340982363E+00  1.766285074152E+00  1.787480495042E+00
  1.808930260982E+00  1.830637424114E+00  1.852605073203E+00  1.874836334082E+00
  1.897334370091E+00  1.920102382532E+00  1.943143611122E+00  1.966461334456E+00
  1.990058870469E+00  2.013939576915E+00  2.038106851838E+00  2.062564134060E+00
  2.087314903669E+00  2.112362682513E+00  2.137711034703E+00  2.163363567119E+00
  2.189323929925E+00  2.215595817084E+00  2.242182966889E+00  2.269089162491E+00
  2.296318232441E+00  2.323874051231E+00  2.351760539845E+00  2.379981666323E+00
  2.408541446319E+00  2.437443943675E+00  2.466693270999E+00  2.496293590251E+00
  2.526249113334E+00  2.556564102694E+00  2.587242871927E+00  2.618289786390E+00
  2.649709263826E+00  2.681505774992E+00  2.713683844292E+00  2.746248050424E+00
  2.779203027029E+00  2.812553463353E+00  2.846304104913E+00  2.880459754172E+00
  2.915025271222E+00  2.950005574477E+00  2.985405641371E+00  3.021230509067E+00
  3.057485275176E+00  3.094175098478E+00  3.131305199660E+00  3.168880862056E+00
  3.206907432400E+00  3.245390321589E+00  3.284335005448E+00  3.323747025514E+00
  3.363631989820E+00  3.403995573698E+00  3.444843520582E+00  3.486181642829E+00
  3.528015822543E+00  3.570352012414E+00  3.613196236563E+00  3.656554591401E+00
  3.700433246498E+00  3.744838445456E+00  3.789776506802E+00  3.835253824883E+00
  3.881276870782E+00  3.927852193231E+00  3.974986419550E+00  4.022686256585E+00
  4.070958491664E+00  4.119809993564E+00  4.169247713486E+00  4.219278686048E+00
  4.269910030281E+00  4.321148950644E+00  4.373002738052E+00  4.425478770908E+00
  4.478584516159E+00  4.532327530353E+00  4.586715460717E+00  4.641756046246E+00
  4.697457118801E+00  4.753826604227E+00  4.810872523477E+00  4.868602993759E+00
  4.927026229684E+00  4.986150544440E+00  5.045984350974E+00  5.106536163185E+00
  5.167814597144E+00  5.229828372309E+00  5.292586312777E+00  5.356097348530E+00
  5.420370516713E+00  5.485414962913E+00  5.551239942468E+00  5.617854821778E+00
  5.685269079639E+00  5.753492308595E+00  5.822534216298E+00  5.892404626894E+00
  5.963113482416E+00  6.034670844205E+00  6.107086894336E+00  6.180371937068E+00
  6.254536400313E+00  6.329590837116E+00  6.405545927162E+00  6.482412478288E+00
  6.560201428027E+00  6.638923845163E+00  6.718590931305E+00  6.799214022481E+00
  6.880804590751E+00  6.963374245840E+00  7.046934736790E+00  7.131497953631E+00
  7.217075929075E+00  7.303680840224E+00  7.391325010307E+00  7.480020910430E+00
  7.569781161355E+00  7.660618535292E+00  7.752545957715E+00  7.845576509208E+00
  7.939723427318E+00  8.035000108446E+00  8.131420109747E+00  8.228997151064E+00
  8.327745116877E+00  8.427678058280E+00  8.528810194979E+00  8.631155917319E+00
  8.734729788327E+00  8.839546545787E+00  8.945621104336E+00  9.052968557588E+00
  9.161604180279E+00  9.271543430442E+00  9.382801951608E+00  9.495395575027E+00
  9.609340321927E+00  9.724652405790E+00  9.841348234660E+00  9.959444413476E+00
  1.007895774644E+01  1.019990523939E+01  1.032230410227E+01  1.044617175149E+01
  1.057152581251E+01  1.069838412226E+01  1.082676473173E+01  1.095668590851E+01
  1.108816613941E+01  1.122122413309E+01  1.135587882268E+01  1.149214936856E+01
  1.163005516098E+01  1.176961582291E+01  1.191085121278E+01  1.205378142734E+01
  1.219842680447E+01  1.234480792612E+01  1.249294562123E+01  1.264286096869E+01
  1.279457530031E+01  1.294811020392E+01  1.310348752636E+01  1.326072937668E+01
  1.341985812920E+01  1.358089642675E+01  1.374386718387E+01  1.390879359008E+01
  1.407569911316E+01  1.424460750252E+01  1.441554279255E+01  1.458852930606E+01
  1.476359165773E+01  1.494075475762E+01  1.512004381471E+01  1.530148434049E+01
  1.548510215258E+01  1.567092337841E+01  1.585897445895E+01  1.604928215246E+01
  1.624187353828E+01  1.643677602074E+01  1.663401733299E+01  1.683362554099E+01
  1.703562904748E+01  1.724005659605E+01  1.744693727520E+01  1.765630052251E+01
  1.786817612878E+01  1.808259424232E+01  1.829958537323E+01  1.851918039771E+01
  1.874141056248E+01  1.896630748923E+01  1.919390317910E+01  1.942423001725E+01
  1.965732077746E+01  1.989320862679E+01  2.013192713031E+01  2.037351025587E+01
  2.061799237894E+01  2.086540828749E+01  2.111579318694E+01  2.136918270518E+01
  2.162561289764E+01  2.188512025242E+01  2.214774169545E+01  2.241351459579E+01
  2.268247677094E+01  2.295466649219E+01  2.323012249010E+01  2.350888395998E+01
  2.379099056750E+01  2.407648245431E+01  2.436540024376E+01  2.465778504669E+01
  2.495367846725E+01  2.525312260885E+01  2.555616008016E+01  2.586283400112E+01
  2.617318800913E+01  2.648726626524E+01  2.680511346043E+01  2.712677482195E+01
  2.745229611982E+01  2.778172367325E+01  2.811510435733E+01  2.845248560962E+01
  2.879391543694E+01  2.913944242218E+01  2.948911573124E+01  2.984298512002E+01
  3.020110094146E+01  3.056351415276E+01  3.093027632259E+01  3.130143963846E+01
  3.167705691412E+01  3.205718159709E+01  3.244186777626E+01  3.283117018957E+01
  3.322514423185E+01  3.362384596263E+01  3.402733211418E+01  3.443566009955E+01
  3.484888802075E+01  3.526707467700E+01  3.569027957312E+01  3.611856292800E+01
  3.655198568313E+01  3.699060951133E+01  3.743449682547E+01  3.788371078737E+01
  3.833831531682E+01  3.879837510062E+01  3.926395560183E+01  3.973512306905E+01
  4.021194454588E+01  4.069448788043E+01  4.118282173500E+01  4.167701559582E+01
  4.217713978297E+01  4.268326546036E+01  4.319546464589E+01  4.371381022164E+01
  4.423837594430E+01
</grid-data>
</grid>
<valence-charge total-charge="2" is-unscreening-charge="yes"
 rescaled-to-z-pseudo="no">
<radfunc>
<data npts="457">
  1.767230695153E+01  1.767055265130E+01  1.766530823758E+01  1.765656052956E+01
  1.764440211851E+01  1.762842203326E+01  1.760806703895E+01  1.758477451787E+01
  1.755860459133E+01  1.752811307297E+01  1.749377843460E+01  1.745650052467E+01
  1.741150570255E+01  1.736458061692E+01  1.730931418035E+01  1.725421643053E+01
  1.719089020650E+01  1.713098260871E+01  1.706377320258E+01  1.698841276989E+01
  1.690396420896E+01  1.682917230388E+01  1.674733235680E+01  1.665782821579E+01
  1.655999985216E+01  1.645314238852E+01  1.633650564625E+01  1.624213370849E+01
  1.614146266115E+01  1.603412717846E+01  1.591974912363E+01  1.579793847941E+01
  1.566829456681E+01  1.553040759214E+01  1.538386056524E+01  1.522823163451E+01
  1.506309688611E+01  1.488803365606E+01  1.476560247829E+01  1.463845132524E+01
  1.450646119640E+01  1.436951635897E+01  1.422750513075E+01  1.408032072673E+01
  1.392786217083E+01  1.377003527341E+01  1.360675367484E+01  1.343793995443E+01
  1.326352680331E+01  1.308345825863E+01  1.289769099548E+01  1.270619567143E+01
  1.250895831719E+01  1.230598176519E+01  1.209728710623E+01  1.188291516204E+01
  1.166292795997E+01  1.143741019340E+01  1.120647064935E+01  1.097024358245E+01
  1.072889001187E+01  1.048259891563E+01  1.023158829442E+01  9.976106075017E+00
  9.716430821754E+00  9.452872222913E+00  9.185771318289E+00  9.051007639386E+00
  8.915500433808E+00  8.779301066549E+00  8.642462789621E+00  8.505040709712E+00
  8.367091749544E+00  8.228674602748E+00  8.089849682060E+00  7.950679060688E+00
  7.811226406712E+00  7.671556910407E+00  7.531737204415E+00  7.391835276705E+00
  7.251920376321E+00  7.112062911933E+00  6.972334343242E+00  6.832807065370E+00
  6.693554286345E+00  6.554649897902E+00  6.416168339823E+00  6.278184458107E+00
  6.140773357307E+00  6.004010247427E+00  5.867970285803E+00  5.732728414470E+00
  5.598359193555E+00  5.464936631267E+00  5.332534011143E+00  5.201223717213E+00
  5.071077057816E+00  4.942164088830E+00  4.814553437115E+00  4.688312124988E+00
  4.563505396612E+00  4.440196547145E+00  4.318446755561E+00  4.198314922037E+00
  4.079857510804E+00  3.963128399360E+00  3.848178734923E+00  3.735056798993E+00
  3.623807880833E+00  3.514474160698E+00  3.407094603523E+00  3.301704863810E+00
  3.198337202317E+00  3.097020415159E+00  2.997779775803E+00  2.900636990409E+00
  2.805610166849E+00  2.712713797695E+00  2.621958757340E+00  2.533352313365E+00
  2.446898152160E+00  2.362596418721E+00  2.280443770475E+00  2.200433444885E+00
  2.122555340537E+00  2.046796111305E+00  1.973139273165E+00  1.901565323124E+00
  1.832051869718E+00  1.764573774460E+00  1.699103303585E+00  1.635610289393E+00
  1.574062300492E+00  1.514424820169E+00  1.456661432127E+00  1.400734012794E+00
  1.346602929364E+00  1.294227242737E+00  1.243564914440E+00  1.194573016632E+00
  1.147207944168E+00  1.101425627699E+00  1.057181746659E+00  1.014431940923E+00
  9.731320197883E-01  9.332381668500E-01  8.947071391636E-01  8.574964589883E-01
  8.215645962363E-01  7.868711396258E-01  7.533769544042E-01  7.210443244025E-01
  6.898370761067E-01  6.597206824035E-01  6.306623436804E-01  6.026310440568E-01
  5.755975806927E-01  5.495345643850E-01  5.244163900137E-01  5.002190683665E-01
  4.769196074742E-01  4.544951505427E-01  4.329229955322E-01  4.121806023726E-01
  3.922456084929E-01  3.730958438670E-01  3.547093455637E-01  3.370643717888E-01
  3.201394154060E-01  3.039132169270E-01  2.883647769597E-01  2.734733681050E-01
  2.592185462926E-01  2.455801615487E-01  2.325383681862E-01  2.200736344118E-01
  2.081667513433E-01  1.967988414311E-01  1.859513662802E-01  1.756061338681E-01
  1.657453051557E-01  1.563514000893E-01  1.474073029933E-01  1.388962673518E-01
  1.308019199823E-01  1.231082646025E-01  1.157996847937E-01  1.088609463658E-01
  1.022771991304E-01  9.603397808789E-02  9.011720403863E-02  8.451318362781E-02
  7.920860883522E-02  7.419055592315E-02  6.944648385640E-02  6.496423221015E-02
  6.073201858244E-02  5.673843552942E-02  5.297244704274E-02  4.942338458933E-02
  4.608094273522E-02  4.293517437554E-02  3.997648559397E-02  3.719563017542E-02
  3.458370379633E-02  3.213213791754E-02  2.983269340461E-02  2.767745390115E-02
  2.565881898028E-02  2.376949709943E-02  2.200249838357E-02  2.035112726114E-02
  1.880897497701E-02  1.736991200575E-02  1.602808038779E-02  1.477788601061E-02
  1.361399085548E-02  1.253130523009E-02  1.152498000551E-02  1.059039887548E-02
  9.723170654574E-03  8.919121630429E-03  8.174287984512E-03  7.484908294231E-03
  6.847416128334E-03  6.258432746254E-03  5.714759910992E-03  5.213372824059E-03
  4.751413189984E-03  4.326182416954E-03  3.935134959245E-03  3.575871806307E-03
  3.246134122586E-03  2.943797041506E-03  2.666863616381E-03  2.413458930494E-03
  2.181824368069E-03  1.970312047420E-03  1.777379417145E-03  1.601584015916E-03
  1.441578396057E-03  1.296105210847E-03  1.163992465215E-03  1.044148929251E-03
  9.355597137448E-04  8.372820067602E-04  7.484409700253E-04  6.682257937614E-04
  5.958859083542E-04  5.307273510975E-04  4.721092860462E-04  4.194406748329E-04
  3.721770961144E-04  3.298177111340E-04  2.919023727024E-04  2.580088747252E-04
  2.277503392309E-04  2.007727376906E-04  1.767525432614E-04  1.553945104388E-04
  1.364295784689E-04  1.196128947444E-04  1.047219543009E-04  9.155485143300E-05
  7.992863937235E-05  6.967779390267E-05  6.065277674315E-05  5.271869449944E-05
  4.575404896860E-05  3.964957458715E-05  3.430715883078E-05  2.963884140836E-05
  2.556588814289E-05  2.201793549485E-05  1.893220175981E-05  1.625276106057E-05
  1.392987635247E-05  1.191938776957E-05  1.018215275577E-05  8.683534549340E-06
  7.392935719144E-06  6.283373585561E-06  5.331094497676E-06  4.515224079059E-06
  3.817450696909E-06  3.221739552185E-06  2.714074930777E-06  2.282228296926E-06
  1.915550049224E-06  1.604782895935E-06  1.341894939440E-06  1.119930688826E-06
  9.328783445814E-07  7.755518196069E-07  6.434860760090E-07  5.328444672586E-07
  4.403368799757E-07  3.631475688451E-07  2.988716718596E-07  2.454594812512E-07
  2.011676281400E-07  1.645164161800E-07  1.342526114442E-07  1.093170625855E-07
  8.881658713457E-08  7.199961681663E-08  5.823514721076E-08  4.699458514422E-08
  3.783613114862E-08  3.039137433191E-08  2.435381337950E-08  1.946905032608E-08
  1.552643347019E-08  1.235195256768E-08  9.802213461352E-09  7.759340799675E-09
  6.126676675938E-09  4.825160078932E-09  3.790287177050E-09  2.969565837030E-09
  2.320389574270E-09  1.808266500006E-09  1.405347917080E-09  1.089209155076E-09
  8.418421512309E-10  6.488252894018E-10  4.986412092720E-10  3.821177862824E-10
  2.919713449296E-10  2.224344811403E-10  1.689537026038E-10  1.279445111413E-10
  9.659360355486E-11  7.269960589699E-11  5.454522400222E-11  4.079492853679E-11
  3.041332915540E-11  2.260025898156E-11  1.673931257111E-11  1.235718034241E-11
  9.091618337954E-12  6.666310923378E-12  4.871170530661E-12  3.547052527403E-12
  2.573785804796E-12  1.860929566479E-12  1.340669261220E-12  9.623404769981E-13
  6.882278065069E-13  4.903574575315E-13  3.480574788885E-13  2.461087506638E-13
  0.000000000000E+00  0.000000000000E+00  0.000000000000E+00  0.000000000000E+00
  0.000000000000E+00  0.000000000000E+00  0.000000000000E+00  0.000000000000E+00
  0.000000000000E+00  0.000000000000E+00  0.000000000000E+00  0.000000000000E+00
  0.000000000000E+00  0.000000000000E+00  0.000000000000E+00  0.000000000000E+00
  0.000000000000E+00  0.000000000000E+00  0.000000000000E+00  0.000000000000E+00
  0.000000000000E+00  0.000000000000E+00  0.000000000000E+00  0.000000000000E+00
  0.000000000000E+00  0.000000000000E+00  0.000000000000E+00  0.000000000000E+00
  0.000000000000E+00  0.000000000000E+00  0.000000000000E+00  0.000000000000E+00
  0.000000000000E+00  0.000000000000E+00  0.000000000000E+00  0.000000000000E+00
  0.000000000000E+00  0.000000000000E+00  0.000000000000E+00  0.000000000000E+00
  0.000000000000E+00  0.000000000000E+00  0.000000000000E+00  0.000000000000E+00
  0.000000000000E+00  0.000000000000E+00  0.000000000000E+00  0.000000000000E+00
  0.000000000000E+00  0.000000000000E+00  0.000000000000E+00  0.000000000000E+00
  0.000000000000E+00  0.000000000000E+00  0.000000000000E+00  0.000000000000E+00
  0.000000000000E+00  0.000000000000E+00  0.000000000000E+00  0.000000000000E+00
  0.000000000000E+00  0.000000000000E+00  0.000000000000E+00  0.000000000000E+00
  0.000000000000E+00  0.000000000000E+00  0.000000000000E+00  0.000000000000E+00
  0.000000000000E+00  0.000000000000E+00  0.000000000000E+00  0.000000000000E+00
  0.000000000000E+00  0.000000000000E+00  0.000000000000E+00  0.000000000000E+00
  0.000000000000E+00  0.000000000000E+00  0.000000000000E+00  0.000000000000E+00
  0.000000000000E+00  0.000000000000E+00  0.000000000000E+00  0.000000000000E+00
  0.000000000000E+00  0.000000000000E+00  0.000000000000E+00  0.000000000000E+00
  0.000000000000E+00  0.000000000000E+00  0.000000000000E+00  0.000000000000E+00
  0.000000000000E+00  0.000000000000E+00  0.000000000000E+00  0.000000000000E+00
  0.000000000000E+00  0.000000000000E+00  0.000000000000E+00  0.000000000000E+00
  0.000000000000E+00  0.000000000000E+00  0.000000000000E+00  0.000000000000E+00
  0.000000000000E+00
</data>
</radfunc>
</valence-charge>
<semilocal-potentials set="scalar_relativistic">
<slps n="1" l="s" rc="1.26475512779">
<radfunc>
<data npts="290">
 -8.348481926730E+00 -8.348057645932E+00 -8.346789345246E+00 -8.344673537621E+00
 -8.341732163274E+00 -8.337865132456E+00 -8.332937562458E+00 -8.327296293607E+00
 -8.320954811762E+00 -8.313561613694E+00 -8.305230672938E+00 -8.296178353411E+00
 -8.285241880195E+00 -8.273824044312E+00 -8.260360221642E+00 -8.246919415231E+00
 -8.231448400212E+00 -8.216789398297E+00 -8.200316105918E+00 -8.181809266259E+00
 -8.161024339281E+00 -8.142574078166E+00 -8.122338467073E+00 -8.100150287830E+00
 -8.075827596889E+00 -8.049172573735E+00 -8.019970300896E+00 -7.996257346692E+00
 -7.970875090242E+00 -7.943711306855E+00 -7.914646849368E+00 -7.883555295801E+00
 -7.850302591173E+00 -7.814746686579E+00 -7.776737179869E+00 -7.736114963759E+00
 -7.692711888874E+00 -7.646350451482E+00 -7.613707283770E+00 -7.579608448566E+00
 -7.543994104370E+00 -7.506802426217E+00 -7.467969600678E+00 -7.427429831866E+00
 -7.385115360465E+00 -7.340956498094E+00 -7.294881679551E+00 -7.246817535863E+00
 -7.196688991377E+00 -7.144419388441E+00 -7.089930643709E+00 -7.033143440382E+00
 -6.973977461189E+00 -6.912351667344E+00 -6.848184629044E+00 -6.781394913628E+00
 -6.711901537811E+00 -6.639624490812E+00 -6.564485335576E+00 -6.486407895445E+00
 -6.405319033920E+00 -6.321149535110E+00 -6.233835092443E+00 -6.143317412862E+00
 -6.049545443255E+00 -5.952476725047E+00 -5.852078881746E+00 -5.800624574129E+00
 -5.748331242720E+00 -5.695198421696E+00 -5.641226604510E+00 -5.586417306315E+00
 -5.530773128459E+00 -5.474297824878E+00 -5.416996370413E+00 -5.358875030838E+00
 -5.299941434549E+00 -5.240204645752E+00 -5.179675238949E+00 -5.118365374578E+00
 -5.056288875543E+00 -4.993461304428E+00 -4.929900041090E+00 -4.865624360332E+00
 -4.800655509351E+00 -4.735016784532E+00 -4.668733607263E+00 -4.601833598253E+00
 -4.534346649957E+00 -4.466304996545E+00 -4.397743280890E+00 -4.328698618013E+00
 -4.259210654322E+00 -4.189321622033E+00 -4.119076388045E+00 -4.048522496560E+00
 -3.977710204669E+00 -3.906692510093E+00 -3.835525170257E+00 -3.764266711792E+00
 -3.692978429568E+00 -3.621724374307E+00 -3.550571327765E+00 -3.479588764490E+00
 -3.408848799045E+00 -3.338426117630E+00 -3.268397892894E+00 -3.198843680775E+00
 -3.129845298059E+00 -3.061486679345E+00 -2.993853712014E+00 -2.927034047686E+00
 -2.861116888613E+00 -2.796192747295E+00 -2.732353177543E+00 -2.669690475031E+00
 -2.608297345314E+00 -2.548266537088E+00 -2.489690438391E+00 -2.432660633269E+00
 -2.377267416364E+00 -2.323599262780E+00 -2.271742250564E+00 -2.221779433195E+00
 -2.173790159546E+00 -2.127849339116E+00 -2.084026650613E+00 -2.042385692625E+00
 -2.002983075806E+00 -1.965867457067E+00 -1.931078517533E+00 -1.898645887592E+00
 -1.868588024326E+00 -1.840911048854E+00 -1.815607553755E+00 -1.792655393749E+00
 -1.772016476141E+00 -1.753635571221E+00 -1.737439166730E+00 -1.723334394730E+00
 -1.711208063471E+00 -1.700925831300E+00 -1.692331564010E+00 -1.685246921407E+00
 -1.679471222745E+00 -1.674781644388E+00 -1.670933806310E+00 -1.667662806689E+00
 -1.664684765768E+00 -1.661698941298E+00 -1.658390477816E+00 -1.654433850783E+00
 -1.649497063611E+00 -1.643246650547E+00 -1.635353530678E+00 -1.625499747280E+00
 -1.613386111717E+00 -1.598740813951E+00 -1.581328147763E+00 -1.562591725047E+00
 -1.544062760842E+00 -1.525753562163E+00 -1.507661469485E+00 -1.489783911601E+00
 -1.472118344404E+00 -1.454662253958E+00 -1.437413156146E+00 -1.420368596315E+00
 -1.403526148926E+00 -1.386883417213E+00 -1.370438032840E+00 -1.354187655567E+00
 -1.338129972916E+00 -1.322262699841E+00 -1.306583578409E+00 -1.291090377473E+00
 -1.275780892358E+00 -1.260652944546E+00 -1.245704381369E+00 -1.230933075699E+00
 -1.216336925648E+00 -1.201913854266E+00 -1.187661809248E+00 -1.173578762640E+00
 -1.159662710547E+00 -1.145911672853E+00 -1.132323692931E+00 -1.118896837369E+00
 -1.105629195691E+00 -1.092518880083E+00 -1.079564025126E+00 -1.066762787524E+00
 -1.054113345844E+00 -1.041613900253E+00 -1.029262672260E+00 -1.017057904462E+00
 -1.004997860291E+00 -9.930808237660E-01 -9.813050992448E-01 -9.696690111843E-01
 -9.581709038978E-01 -9.468091413191E-01 -9.355821067680E-01 -9.244882027191E-01
 -9.135258505736E-01 -9.026934904339E-01 -8.919895808812E-01 -8.814125987559E-01
 -8.709610389407E-01 -8.606334141469E-01 -8.504282547030E-01 -8.403441083466E-01
 -8.303795400187E-01 -8.205331316605E-01 -8.108034820131E-01 -8.011892064199E-01
 -7.916889366311E-01 -7.823013206110E-01 -7.730250223474E-01 -7.638587216638E-01
 -7.548011140335E-01 -7.458509103957E-01 -7.370068369745E-01 -7.282676350996E-01
 -7.196320610286E-01 -7.110988857721E-01 -7.026668949204E-01 -6.943348884716E-01
 -6.861016806629E-01 -6.779660998019E-01 -6.699269881015E-01 -6.619832015154E-01
 -6.541336095756E-01 -6.463770952320E-01 -6.387125546934E-01 -6.311388972703E-01
 -6.236550452192E-01 -6.162599335893E-01 -6.089525100699E-01 -6.017317348401E-01
 -5.945965804204E-01 -5.875460315253E-01 -5.805790849181E-01 -5.736947492673E-01
 -5.668920450046E-01 -5.601700041846E-01 -5.535276703460E-01 -5.469640983749E-01
 -5.404783543693E-01 -5.340695155051E-01 -5.277366699048E-01 -5.214789165063E-01
 -5.152953649342E-01 -5.091851353726E-01 -5.031473584395E-01 -4.971811750623E-01
 -4.912857363551E-01 -4.854602034979E-01 -4.797037476166E-01 -4.740155496646E-01
 -4.683948003067E-01 -4.628406998029E-01 -4.573524578951E-01 -4.519292936942E-01
 -4.465704355689E-01 -4.412751210360E-01 -4.360425966519E-01 -4.308721179051E-01
 -4.257629491105E-01 -4.207143633048E-01 -4.157256421430E-01 -4.107960757960E-01
 -4.059249628503E-01 -4.011116102075E-01 -3.963553329864E-01 -3.916554544253E-01
 -3.870113057858E-01 -3.824222262580E-01 -3.778875628661E-01 -3.734066703761E-01
 -3.689789112039E-01 -3.646036553245E-01 -3.602802801828E-01 -3.560081706046E-01
 -3.517867187099E-01 -3.476153238260E-01 -3.434933924023E-01 -3.394203379260E-01
 -3.353955808387E-01 -3.314185484540E-01
</data>
</radfunc>
</slps>
<slps n="2" l="p" rc="1.13600916810">
<radfunc>
<data npts="290">
 -6.493188717426E+00 -6.492734014113E+00 -6.491375071039E+00 -6.489109043683E+00
 -6.485960895655E+00 -6.481825665813E+00 -6.476562345705E+00 -6.470544956797E+00
 -6.463791196926E+00 -6.455931413836E+00 -6.447092855717E+00 -6.437510763710E+00
 -6.425964531421E+00 -6.413945444375E+00 -6.399819005726E+00 -6.385766749142E+00
 -6.369653767457E+00 -6.354447502980E+00 -6.337429976116E+00 -6.318400914467E+00
 -6.297141802007E+00 -6.278369966945E+00 -6.257888839810E+00 -6.235559970501E+00
 -6.211236994758E+00 -6.184765827514E+00 -6.155985011300E+00 -6.132782686717E+00
 -6.108113344332E+00 -6.081901973085E+00 -6.054072116457E+00 -6.024546189467E+00
 -5.993245846998E+00 -5.960092405405E+00 -5.925007318495E+00 -5.887912707780E+00
 -5.848731945163E+00 -5.807390284197E+00 -5.778592901438E+00 -5.748782352702E+00
 -5.717938762708E+00 -5.686043091773E+00 -5.653077231726E+00 -5.619024100094E+00
 -5.583867730972E+00 -5.547593360829E+00 -5.510187507171E+00 -5.471638037871E+00
 -5.431934228677E+00 -5.391066806207E+00 -5.349027973635E+00 -5.305811416041E+00
 -5.261412282413E+00 -5.215827141315E+00 -5.169053907294E+00 -5.121091735510E+00
 -5.071940882439E+00 -5.021602531252E+00 -4.970078581443E+00 -4.917371403509E+00
 -4.863483561209E+00 -4.808417505910E+00 -4.752175250068E+00 -4.694758029875E+00
 -4.636165970570E+00 -4.576397771913E+00 -4.515450435739E+00 -4.484533137861E+00
 -4.453319062336E+00 -4.421807282570E+00 -4.389996747457E+00 -4.357886286295E+00
 -4.325474616879E+00 -4.292760357071E+00 -4.259742040300E+00 -4.226418135320E+00
 -4.192787070663E+00 -4.158847264190E+00 -4.124597158100E+00 -4.090035259832E+00
 -4.055160189192E+00 -4.019970732087E+00 -3.984465901149E+00 -3.948645003539E+00
 -3.912507716156E+00 -3.876054168372E+00 -3.839285032403E+00 -3.802201621250E+00
 -3.764805994131E+00 -3.727101069086E+00 -3.689090742398E+00 -3.650780014268E+00
 -3.612175119965E+00 -3.573283665577E+00 -3.534114767163E+00 -3.494679191965E+00
 -3.454989500053E+00 -3.415060184516E+00 -3.374907808085E+00 -3.334551133738E+00
 -3.294011246637E+00 -3.253311664420E+00 -3.212478432622E+00 -3.171540201794E+00
 -3.130528282611E+00 -3.089476675146E+00 -3.048422068290E+00 -3.007403805292E+00
 -2.966463811335E+00 -2.925646479174E+00 -2.884998509062E+00 -2.844568699438E+00
 -2.804407685331E+00 -2.764567621955E+00 -2.725101811699E+00 -2.686064273604E+00
 -2.647509255427E+00 -2.609490689644E+00 -2.572061596090E+00 -2.535273435497E+00
 -2.499175419890E+00 -2.463813787586E+00 -2.429231052519E+00 -2.395465239559E+00
 -2.362549119532E+00 -2.330509459597E+00 -2.299366306557E+00 -2.269132322333E+00
 -2.239812192343E+00 -2.211402128583E+00 -2.183889489945E+00 -2.157252542397E+00
 -2.131460381198E+00 -2.106473036100E+00 -2.082241778456E+00 -2.058709646224E+00
 -2.035812199032E+00 -2.013478510558E+00 -1.991632399690E+00 -1.970193895107E+00
 -1.949080920273E+00 -1.928211177359E+00 -1.907504199740E+00 -1.886883533447E+00
 -1.866278998674E+00 -1.845628973498E+00 -1.824882634119E+00 -1.804002079182E+00
 -1.782964261037E+00 -1.761762644431E+00 -1.740603684687E+00 -1.719736670361E+00
 -1.699148136667E+00 -1.678838543875E+00 -1.658806425189E+00 -1.639048111350E+00
 -1.619557533457E+00 -1.600326196463E+00 -1.581342524715E+00 -1.562591725047E+00
 -1.544062760842E+00 -1.525753562163E+00 -1.507661469485E+00 -1.489783911601E+00
 -1.472118344404E+00 -1.454662253958E+00 -1.437413156146E+00 -1.420368596315E+00
 -1.403526148926E+00 -1.386883417213E+00 -1.370438032840E+00 -1.354187655567E+00