Ne    ONCVPSP-3.3.0  r_core=   1.31204   1.51396
10.0000      8.0000      180506    zatom,zion,pspd
8      11   1     4   400     0    pspcod,pspxc,lmax,lloc,mmax,r2well
3.99000000  0.00000000  0.00000000    rchrg fchrg qchrg
2     2     0     0    nproj
3     1           extension_switch
3     0     0    nprojso
0                        -4.9301205730125D-01  2.6918720972577D+00
1  0.0000000000000D+00  2.3973109608555D-10  4.5807524440278D-10
2  1.0000000000000D-02  1.4616992840092D-02  9.8829392714634D-02
3  2.0000000000000D-02  2.9303656318552D-02  1.9733940405358D-01
4  3.0000000000000D-02  4.4129028244244D-02  2.9521139635753D-01
5  4.0000000000000D-02  5.9160886662970D-02  3.9212822387288D-01
6  5.0000000000000D-02  7.4465134654178D-02  4.8777498976794D-01
7  6.0000000000000D-02  9.0105202569729D-02  5.8183981609435D-01
8  7.0000000000000D-02  1.0614147324438D-01  6.7401463046221D-01
9  8.0000000000000D-02  1.2263073546787D-01  7.6399597273950D-01
10  9.0000000000000D-02  1.3962567071390D-01  8.5148582452671D-01
11  1.0000000000000D-01  1.5717437777473D-01  9.3619246350387D-01
12  1.1000000000000D-01  1.7531993955574D-01  1.0178313440105D+00
13  1.2000000000000D-01  1.9410003584660D-01  1.0961260044084D+00
14  1.3000000000000D-01  2.1354660540826D-01  1.1708090009071D+00
15  1.4000000000000D-01  2.3368556020526D-01  1.2416228666133D+00
16  1.5000000000000D-01  2.5453655407385D-01  1.3083210936121D+00
17  1.6000000000000D-01  2.7611280755623D-01  1.3706691349212D+00
18  1.7000000000000D-01  2.9842099005446D-01  1.4284454221780D+00
19  1.8000000000000D-01  3.2146115987154D-01  1.4814423939632D+00
20  1.9000000000000D-01  3.4522676211759D-01  1.5294675287228D+00
21  2.0000000000000D-01  3.6970468387291D-01  1.5723443753609D+00
22  2.1000000000000D-01  3.9487536542280D-01  1.6099135737342D+00
23  2.2000000000000D-01  4.2071296581832D-01  1.6420338565213D+00
24  2.3000000000000D-01  4.4718558047829D-01  1.6685830232539D+00
25  2.4000000000000D-01  4.7425550803683D-01  1.6894588767222D+00
26  2.5000000000000D-01  5.0187956316292D-01  1.7045801114930D+00
27  2.6000000000000D-01  5.3000943163950D-01  1.7138871439326D+00
28  2.7000000000000D-01  5.5859206359392D-01  1.7173428729056D+00
29  2.8000000000000D-01  5.8757010042283D-01  1.7149333602397D+00
30  2.9000000000000D-01  6.1688233065793D-01  1.7066684201087D+00
31  3.0000000000000D-01  6.4646416977596D-01  1.6925821066958D+00
32  3.1000000000000D-01  6.7624815877059D-01  1.6727330898585D+00
33  3.2000000000000D-01  7.0616447617649D-01  1.6472049090261D+00
34  3.3000000000000D-01  7.3614145816884D-01  1.6161060962219D+00
35  3.4000000000000D-01  7.6610612135473D-01  1.5795701599049D+00
36  3.5000000000000D-01  7.9598468292605D-01  1.5377554222704D+00
37  3.6000000000000D-01  8.2570307295700D-01  1.4908447037300D+00
38  3.7000000000000D-01  8.5518743379966D-01  1.4390448494872D+00
39  3.8000000000000D-01  8.8436460175786D-01  1.3825860944443D+00
40  3.9000000000000D-01  9.1316256649935D-01  1.3217212640876D+00
41  4.0000000000000D-01  9.4151090399452D-01  1.2567248105003D+00
42  4.1000000000000D-01  9.6934117914530D-01  1.1878916842214D+00
43  4.2000000000000D-01  9.9658731468258D-01  1.1155360442972D+00
44  4.3000000000000D-01  1.0231859233622D+00  1.0399898105315D+00
45  4.4000000000000D-01  1.0490766009715D+00  9.6160106362009D-01
46  4.5000000000000D-01  1.0742021781660D+00  8.8073230053309D-01
47  4.6000000000000D-01  1.0985089296792D+00  7.9775855416492D-01
48  4.7000000000000D-01  1.1219467399899D+00  7.1306538788640D-01
49  4.8000000000000D-01  1.1444692250735D+00  6.2704677718865D-01
50  4.9000000000000D-01  1.1660338104072D+00  5.4010289208200D-01
51  5.0000000000000D-01  1.1866017659390D+00  4.5263779528764D-01
52  5.1000000000000D-01  1.2061381992513D+00  3.6505707251729D-01
53  5.2000000000000D-01  1.2246120086561D+00  2.7776541225812D-01
54  5.3000000000000D-01  1.2419957984377D+00  1.9116415345160D-01
55  5.4000000000000D-01  1.2582657589048D+00  1.0564882026072D-01
56  5.5000000000000D-01  1.2734015143297D+00  2.1606663748174D-02
57  5.6000000000000D-01  1.2873859422154D+00 -6.0585769275024D-02
58  5.7000000000000D-01  1.3002049676630D+00 -1.4056501973144D-01
59  5.8000000000000D-01  1.3118473368791D+00 -2.1798303155772D-01
60  5.9000000000000D-01  1.3223043740896D+00 -2.9250937843061D-01
61  6.0000000000000D-01  1.3315697262887D+00 -3.6383338197547D-01
62  6.1000000000000D-01  1.3396391003596D+00 -4.3166610210257D-01
63  6.2000000000000D-01  1.3465099971550D+00 -4.9574218092902D-01
64  6.3000000000000D-01  1.3521814471112D+00 -5.5582152277355D-01
65  6.4000000000000D-01  1.3566537519019D+00 -6.1169079393088D-01
66  6.5000000000000D-01  1.3599282365083D+00 -6.6316472734708D-01
67  6.6000000000000D-01  1.3620070158941D+00 -7.1008721891374D-01
68  6.7000000000000D-01  1.3628927802382D+00 -7.5233220385176D-01
69  6.8000000000000D-01  1.3625886023793D+00 -7.8980430356155D-01
70  6.9000000000000D-01  1.3610977707906D+00 -8.2243923535669D-01
71  7.0000000000000D-01  1.3584236510155D+00 -8.5020397964257D-01
72  7.1000000000000D-01  1.3545695780714D+00 -8.7309670133541D-01
73  7.2000000000000D-01  1.3495387818704D+00 -8.9114642462299D-01
74  7.3000000000000D-01  1.3433343472194D+00 -9.0441246251454D-01
75  7.4000000000000D-01  1.3359592094518D+00 -9.1298360498872D-01
76  7.5000000000000D-01  1.3274161862176D+00 -9.1697707190620D-01
77  7.6000000000000D-01  1.3177080454264D+00 -9.1653723918110D-01
78  7.7000000000000D-01  1.3068376087962D+00 -9.1183414896194D-01
79  7.8000000000000D-01  1.2948078899319D+00 -9.0306181676874D-01
80  7.9000000000000D-01  1.2816222653301D+00 -8.9043635059866D-01
81  8.0000000000000D-01  1.2672846762052D+00 -8.7419389895882D-01
82  8.1000000000000D-01  1.2517998585495D+00 -8.5458844657353D-01
83  8.2000000000000D-01  1.2351735983871D+00 -8.3188947812663D-01
84  8.3000000000000D-01  1.2174130087695D+00 -8.0637953181715D-01
85  8.4000000000000D-01  1.1985268246856D+00 -7.7835166571241D-01
86  8.5000000000000D-01  1.1785257117314D+00 -7.4810686085917D-01
87  8.6000000000000D-01  1.1574225841120D+00 -7.1595138584949D-01
88  8.7000000000000D-01  1.1352329273236D+00 -6.8219414802143D-01
89  8.8000000000000D-01  1.1119751207057D+00 -6.4714405669839D-01
90  8.9000000000000D-01  1.0876707549462D+00 -6.1110742382979D-01
91  9.0000000000000D-01  1.0623449395881D+00 -5.7438542708706D-01
92  9.1000000000000D-01  1.0360265956072D+00 -5.3727165989367D-01
93  9.2000000000000D-01  1.0087487282187D+00 -5.0004979203015D-01
94  9.3000000000000D-01  9.8054867522437D-01 -4.6299136336033D-01
95  9.4000000000000D-01  9.5146832641978D-01 -4.2635373188411D-01
96  9.5000000000000D-01  9.2155430986027D-01 -3.9037819574985D-01
97  9.6000000000000D-01  8.9085814111156D-01 -3.5528830704945D-01
98  9.7000000000000D-01  8.5943633199308D-01 -3.2128839324908D-01
99  9.8000000000000D-01  8.2735045575645D-01 -2.8856229991590D-01
100  9.9000000000000D-01  7.9466716612154D-01 -2.5727236605450D-01
101  1.0000000000000D+00  7.6145816810529D-01 -2.2755864091293D-01
102  1.0100000000000D+00  7.2780013913028D-01 -1.9953834852769D-01
103  1.0200000000000D+00  6.9377459947394D-01 -1.7330560362574D-01
104  1.0300000000000D+00  6.5946773172766D-01 -1.4893137973225D-01
105  1.0400000000000D+00  6.2497014952080D-01 -1.2646372770055D-01
106  1.0500000000000D+00  5.9037661639866D-01 -1.0592824005921D-01
107  1.0600000000000D+00  5.5578571635762D-01 -8.7328753873772D-02
108  1.0700000000000D+00  5.2129947813221D-01 -7.0648282242914D-02
109  1.0800000000000D+00  4.8702295593577D-01 -5.5850161931371D-02
110  1.0900000000000D+00  4.5306376989873D-01 -4.2879402321139D-02
111  1.1000000000000D+00  4.1953160998614D-01 -3.1664218580181D-02
112  1.1100000000000D+00  3.8653770770077D-01 -2.2117729743571D-02
113  1.1200000000000D+00  3.5419428029724D-01 -1.4139800657395D-02
114  1.1300000000000D+00  3.2261395266809D-01 -7.6190049407641D-03
115  1.1400000000000D+00  2.9190916235361D-01 -2.4346849290884D-03
116  1.1500000000000D+00  2.6219155350980D-01  1.5409169744416D-03
117  1.1600000000000D+00  2.3357136582625D-01  4.4404817247345D-03
118  1.1700000000000D+00  2.0615682456362D-01  6.3994186949634D-03
119  1.1800000000000D+00  1.8005353798831D-01  7.5536796314328D-03
120  1.1900000000000D+00  1.5536390851363D-01  8.0376088003043D-03
121  1.2000000000000D+00  1.3218656376328D-01  7.9818561721118D-03
122  1.2100000000000D+00  1.1061581371077D-01  7.5113801746912D-03
123  1.2200000000000D+00  9.0741139863403D-02  6.7435656857342D-03
124  1.2300000000000D+00  7.2646722136802D-02  5.7864815257904D-03
125  1.2400000000000D+00  5.6411008771461D-02  4.7373004327218D-03
126  1.2500000000000D+00  4.2106334413330D-02  3.6809034890165D-03
127  1.2600000000000D+00  2.9798590769754D-02  2.6886879338977D-03
128  1.2700000000000D+00  1.9551118177088D-02  1.8180727877238D-03
129  1.2800000000000D+00  1.1405290261378D-02  1.1095637193373D-03
130  1.2900000000000D+00  5.3771633745844D-03  5.8473137381569D-04
131  1.3000000000000D+00  1.6788724775279D-03  2.8199918802096D-04
132  1.3100000000000D+00  1.1971580153858D-04  1.5650771475543D-04
133  1.3200000000000D+00 -1.3076820860717D-04  5.9924670171928D-05
134  1.3300000000000D+00  2.2211193548124D-05 -6.7024431800884D-06
135  1.3400000000000D+00  2.5772609642538D-05 -6.2991977581292D-06
136  1.3500000000000D+00 -7.5681834099751D-06  2.6556238798477D-06
137  1.3600000000000D+00  6.7080261863838D-10 -1.4505871941552D-08
138  1.3700000000000D+00  1.6426069879806D-08 -3.5520801433826D-07
139  1.3800000000000D+00  0.0000000000000D+00  0.0000000000000D+00
140  1.3900000000000D+00  0.0000000000000D+00  0.0000000000000D+00
141  1.4000000000000D+00  0.0000000000000D+00  0.0000000000000D+00
142  1.4100000000000D+00  0.0000000000000D+00  0.0000000000000D+00
143  1.4200000000000D+00  0.0000000000000D+00  0.0000000000000D+00
144  1.4300000000000D+00  0.0000000000000D+00  0.0000000000000D+00
145  1.4400000000000D+00  0.0000000000000D+00  0.0000000000000D+00
146  1.4500000000000D+00  0.0000000000000D+00  0.0000000000000D+00
147  1.4600000000000D+00  0.0000000000000D+00  0.0000000000000D+00
148  1.4700000000000D+00  0.0000000000000D+00  0.0000000000000D+00
149  1.4800000000000D+00  0.0000000000000D+00  0.0000000000000D+00
150  1.4900000000000D+00  0.0000000000000D+00  0.0000000000000D+00
151  1.5000000000000D+00  0.0000000000000D+00  0.0000000000000D+00
152  1.5100000000000D+00  0.0000000000000D+00  0.0000000000000D+00
153  1.5200000000000D+00  0.0000000000000D+00  0.0000000000000D+00
154  1.5300000000000D+00  0.0000000000000D+00  0.0000000000000D+00
155  1.5400000000000D+00  0.0000000000000D+00  0.0000000000000D+00
156  1.5500000000000D+00  0.0000000000000D+00  0.0000000000000D+00
157  1.5600000000000D+00  0.0000000000000D+00  0.0000000000000D+00
158  1.5700000000000D+00  0.0000000000000D+00  0.0000000000000D+00
159  1.5800000000000D+00  0.0000000000000D+00  0.0000000000000D+00
160  1.5900000000000D+00  0.0000000000000D+00  0.0000000000000D+00
161  1.6000000000000D+00  0.0000000000000D+00  0.0000000000000D+00
162  1.6100000000000D+00  0.0000000000000D+00  0.0000000000000D+00
163  1.6200000000000D+00  0.0000000000000D+00  0.0000000000000D+00
164  1.6300000000000D+00  0.0000000000000D+00  0.0000000000000D+00
165  1.6400000000000D+00  0.0000000000000D+00  0.0000000000000D+00
166  1.6500000000000D+00  0.0000000000000D+00  0.0000000000000D+00
167  1.6600000000000D+00  0.0000000000000D+00  0.0000000000000D+00
168  1.6700000000000D+00  0.0000000000000D+00  0.0000000000000D+00
169  1.6800000000000D+00  0.0000000000000D+00  0.0000000000000D+00
170  1.6900000000000D+00  0.0000000000000D+00  0.0000000000000D+00
171  1.7000000000000D+00  0.0000000000000D+00  0.0000000000000D+00
172  1.7100000000000D+00  0.0000000000000D+00  0.0000000000000D+00
173  1.7200000000000D+00  0.0000000000000D+00  0.0000000000000D+00
174  1.7300000000000D+00  0.0000000000000D+00  0.0000000000000D+00
175  1.7400000000000D+00  0.0000000000000D+00  0.0000000000000D+00
176  1.7500000000000D+00  0.0000000000000D+00  0.0000000000000D+00
177  1.7600000000000D+00  0.0000000000000D+00  0.0000000000000D+00
178  1.7700000000000D+00  0.0000000000000D+00  0.0000000000000D+00
179  1.7800000000000D+00  0.0000000000000D+00  0.0000000000000D+00
180  1.7900000000000D+00  0.0000000000000D+00  0.0000000000000D+00
181  1.8000000000000D+00  0.0000000000000D+00  0.0000000000000D+00
182  1.8100000000000D+00  0.0000000000000D+00  0.0000000000000D+00
183  1.8200000000000D+00  0.0000000000000D+00  0.0000000000000D+00
184  1.8300000000000D+00  0.0000000000000D+00  0.0000000000000D+00
185  1.8400000000000D+00  0.0000000000000D+00  0.0000000000000D+00
186  1.8500000000000D+00  0.0000000000000D+00  0.0000000000000D+00
187  1.8600000000000D+00  0.0000000000000D+00  0.0000000000000D+00
188  1.8700000000000D+00  0.0000000000000D+00  0.0000000000000D+00
189  1.8800000000000D+00  0.0000000000000D+00  0.0000000000000D+00
190  1.8900000000000D+00  0.0000000000000D+00  0.0000000000000D+00
191  1.9000000000000D+00  0.0000000000000D+00  0.0000000000000D+00
192  1.9100000000000D+00  0.0000000000000D+00  0.0000000000000D+00
193  1.9200000000000D+00  0.0000000000000D+00  0.0000000000000D+00
194  1.9300000000000D+00  0.0000000000000D+00  0.0000000000000D+00
195  1.9400000000000D+00  0.0000000000000D+00  0.0000000000000D+00
196  1.9500000000000D+00  0.0000000000000D+00  0.0000000000000D+00
197  1.9600000000000D+00  0.0000000000000D+00  0.0000000000000D+00
198  1.9700000000000D+00  0.0000000000000D+00  0.0000000000000D+00
199  1.9800000000000D+00  0.0000000000000D+00  0.0000000000000D+00
200  1.9900000000000D+00  0.0000000000000D+00  0.0000000000000D+00
201  2.0000000000000D+00  0.0000000000000D+00  0.0000000000000D+00
202  2.0100000000000D+00  0.0000000000000D+00  0.0000000000000D+00
203  2.0200000000000D+00  0.0000000000000D+00  0.0000000000000D+00
204  2.0300000000000D+00  0.0000000000000D+00  0.0000000000000D+00
205  2.0400000000000D+00  0.0000000000000D+00  0.0000000000000D+00
206  2.0500000000000D+00  0.0000000000000D+00  0.0000000000000D+00
207  2.0600000000000D+00  0.0000000000000D+00  0.0000000000000D+00
208  2.0700000000000D+00  0.0000000000000D+00  0.0000000000000D+00
209  2.0800000000000D+00  0.0000000000000D+00  0.0000000000000D+00
210  2.0900000000000D+00  0.0000000000000D+00  0.0000000000000D+00
211  2.1000000000000D+00  0.0000000000000D+00  0.0000000000000D+00
212  2.1100000000000D+00  0.0000000000000D+00  0.0000000000000D+00
213  2.1200000000000D+00  0.0000000000000D+00  0.0000000000000D+00
214  2.1300000000000D+00  0.0000000000000D+00  0.0000000000000D+00
215  2.1400000000000D+00  0.0000000000000D+00  0.0000000000000D+00
216  2.1500000000000D+00  0.0000000000000D+00  0.0000000000000D+00
217  2.1600000000000D+00  0.0000000000000D+00  0.0000000000000D+00
218  2.1700000000000D+00  0.0000000000000D+00  0.0000000000000D+00
219  2.1800000000000D+00  0.0000000000000D+00  0.0000000000000D+00
220  2.1900000000000D+00  0.0000000000000D+00  0.0000000000000D+00
221  2.2000000000000D+00  0.0000000000000D+00  0.0000000000000D+00
222  2.2100000000000D+00  0.0000000000000D+00  0.0000000000000D+00
223  2.2200000000000D+00  0.0000000000000D+00  0.0000000000000D+00
224  2.2300000000000D+00  0.0000000000000D+00  0.0000000000000D+00
225  2.2400000000000D+00  0.0000000000000D+00  0.0000000000000D+00
226  2.2500000000000D+00  0.0000000000000D+00  0.0000000000000D+00
227  2.2600000000000D+00  0.0000000000000D+00  0.0000000000000D+00
228  2.2700000000000D+00  0.0000000000000D+00  0.0000000000000D+00
229  2.2800000000000D+00  0.0000000000000D+00  0.0000000000000D+00
230  2.2900000000000D+00  0.0000000000000D+00  0.0000000000000D+00
231  2.3000000000000D+00  0.0000000000000D+00  0.0000000000000D+00
232  2.3100000000000D+00  0.0000000000000D+00  0.0000000000000D+00
233  2.3200000000000D+00  0.0000000000000D+00  0.0000000000000D+00
234  2.3300000000000D+00  0.0000000000000D+00  0.0000000000000D+00
235  2.3400000000000D+00  0.0000000000000D+00  0.0000000000000D+00
236  2.3500000000000D+00  0.0000000000000D+00  0.0000000000000D+00
237  2.3600000000000D+00  0.0000000000000D+00  0.0000000000000D+00
238  2.3700000000000D+00  0.0000000000000D+00  0.0000000000000D+00
239  2.3800000000000D+00  0.0000000000000D+00  0.0000000000000D+00
240  2.3900000000000D+00  0.0000000000000D+00  0.0000000000000D+00
241  2.4000000000000D+00  0.0000000000000D+00  0.0000000000000D+00
242  2.4100000000000D+00  0.0000000000000D+00  0.0000000000000D+00
243  2.4200000000000D+00  0.0000000000000D+00  0.0000000000000D+00
244  2.4300000000000D+00  0.0000000000000D+00  0.0000000000000D+00
245  2.4400000000000D+00  0.0000000000000D+00  0.0000000000000D+00
246  2.4500000000000D+00  0.0000000000000D+00  0.0000000000000D+00
247  2.4600000000000D+00  0.0000000000000D+00  0.0000000000000D+00
248  2.4700000000000D+00  0.0000000000000D+00  0.0000000000000D+00
249  2.4800000000000D+00  0.0000000000000D+00  0.0000000000000D+00
250  2.4900000000000D+00  0.0000000000000D+00  0.0000000000000D+00
251  2.5000000000000D+00  0.0000000000000D+00  0.0000000000000D+00
252  2.5100000000000D+00  0.0000000000000D+00  0.0000000000000D+00
253  2.5200000000000D+00  0.0000000000000D+00  0.0000000000000D+00
254  2.5300000000000D+00  0.0000000000000D+00  0.0000000000000D+00
255  2.5400000000000D+00  0.0000000000000D+00  0.0000000000000D+00
256  2.5500000000000D+00  0.0000000000000D+00  0.0000000000000D+00
257  2.5600000000000D+00  0.0000000000000D+00  0.0000000000000D+00
258  2.5700000000000D+00  0.0000000000000D+00  0.0000000000000D+00
259  2.5800000000000D+00  0.0000000000000D+00  0.0000000000000D+00
260  2.5900000000000D+00  0.0000000000000D+00  0.0000000000000D+00
261  2.6000000000000D+00  0.0000000000000D+00  0.0000000000000D+00
262  2.6100000000000D+00  0.0000000000000D+00  0.0000000000000D+00
263  2.6200000000000D+00  0.0000000000000D+00  0.0000000000000D+00
264  2.6300000000000D+00  0.0000000000000D+00  0.0000000000000D+00
265  2.6400000000000D+00  0.0000000000000D+00  0.0000000000000D+00
266  2.6500000000000D+00  0.0000000000000D+00  0.0000000000000D+00
267  2.6600000000000D+00  0.0000000000000D+00  0.0000000000000D+00
268  2.6700000000000D+00  0.0000000000000D+00  0.0000000000000D+00
269  2.6800000000000D+00  0.0000000000000D+00  0.0000000000000D+00
270  2.6900000000000D+00  0.0000000000000D+00  0.0000000000000D+00
271  2.7000000000000D+00  0.0000000000000D+00  0.0000000000000D+00
272  2.7100000000000D+00  0.0000000000000D+00  0.0000000000000D+00
273  2.7200000000000D+00  0.0000000000000D+00  0.0000000000000D+00
274  2.7300000000000D+00  0.0000000000000D+00  0.0000000000000D+00
275  2.7400000000000D+00  0.0000000000000D+00  0.0000000000000D+00
276  2.7500000000000D+00  0.0000000000000D+00  0.0000000000000D+00
277  2.7600000000000D+00  0.0000000000000D+00  0.0000000000000D+00
278  2.7700000000000D+00  0.0000000000000D+00  0.0000000000000D+00
279  2.7800000000000D+00  0.0000000000000D+00  0.0000000000000D+00
280  2.7900000000000D+00  0.0000000000000D+00  0.0000000000000D+00
281  2.8000000000000D+00  0.0000000000000D+00  0.0000000000000D+00
282  2.8100000000000D+00  0.0000000000000D+00  0.0000000000000D+00
283  2.8200000000000D+00  0.0000000000000D+00  0.0000000000000D+00
284  2.8300000000000D+00  0.0000000000000D+00  0.0000000000000D+00
285  2.8400000000000D+00  0.0000000000000D+00  0.0000000000000D+00
286  2.8500000000000D+00  0.0000000000000D+00  0.0000000000000D+00
287  2.8600000000000D+00  0.0000000000000D+00  0.0000000000000D+00
288  2.8700000000000D+00  0.0000000000000D+00  0.0000000000000D+00
289  2.8800000000000D+00  0.0000000000000D+00  0.0000000000000D+00
290  2.8900000000000D+00  0.0000000000000D+00  0.0000000000000D+00
291  2.9000000000000D+00  0.0000000000000D+00  0.0000000000000D+00
292  2.9100000000000D+00  0.0000000000000D+00  0.0000000000000D+00
293  2.9200000000000D+00  0.0000000000000D+00  0.0000000000000D+00
294  2.9300000000000D+00  0.0000000000000D+00  0.0000000000000D+00
295  2.9400000000000D+00  0.0000000000000D+00  0.0000000000000D+00
296  2.9500000000000D+00  0.0000000000000D+00  0.0000000000000D+00
297  2.9600000000000D+00  0.0000000000000D+00  0.0000000000000D+00
298  2.9700000000000D+00  0.0000000000000D+00  0.0000000000000D+00
299  2.9800000000000D+00  0.0000000000000D+00  0.0000000000000D+00
300  2.9900000000000D+00  0.0000000000000D+00  0.0000000000000D+00
301  3.0000000000000D+00  0.0000000000000D+00  0.0000000000000D+00
302  3.0100000000000D+00  0.0000000000000D+00  0.0000000000000D+00
303  3.0200000000000D+00  0.0000000000000D+00  0.0000000000000D+00
304  3.0300000000000D+00  0.0000000000000D+00  0.0000000000000D+00
305  3.0400000000000D+00  0.0000000000000D+00  0.0000000000000D+00
306  3.0500000000000D+00  0.0000000000000D+00  0.0000000000000D+00
307  3.0600000000000D+00  0.0000000000000D+00  0.0000000000000D+00
308  3.0700000000000D+00  0.0000000000000D+00  0.0000000000000D+00
309  3.0800000000000D+00  0.0000000000000D+00  0.0000000000000D+00
310  3.0900000000000D+00  0.0000000000000D+00  0.0000000000000D+00
311  3.1000000000000D+00  0.0000000000000D+00  0.0000000000000D+00
312  3.1100000000000D+00  0.0000000000000D+00  0.0000000000000D+00
313  3.1200000000000D+00  0.0000000000000D+00  0.0000000000000D+00
314  3.1300000000000D+00  0.0000000000000D+00  0.0000000000000D+00
315  3.1400000000000D+00  0.0000000000000D+00  0.0000000000000D+00
316  3.1500000000000D+00  0.0000000000000D+00  0.0000000000000D+00
317  3.1600000000000D+00  0.0000000000000D+00  0.0000000000000D+00
318  3.1700000000000D+00  0.0000000000000D+00  0.0000000000000D+00
319  3.1800000000000D+00  0.0000000000000D+00  0.0000000000000D+00
320  3.1900000000000D+00  0.0000000000000D+00  0.0000000000000D+00
321  3.2000000000000D+00  0.0000000000000D+00  0.0000000000000D+00
322  3.2100000000000D+00  0.0000000000000D+00  0.0000000000000D+00
323  3.2200000000000D+00  0.0000000000000D+00  0.0000000000000D+00
324  3.2300000000000D+00  0.0000000000000D+00  0.0000000000000D+00
325  3.2400000000000D+00  0.0000000000000D+00  0.0000000000000D+00
326  3.2500000000000D+00  0.0000000000000D+00  0.0000000000000D+00
327  3.2600000000000D+00  0.0000000000000D+00  0.0000000000000D+00
328  3.2700000000000D+00  0.0000000000000D+00  0.0000000000000D+00
329  3.2800000000000D+00  0.0000000000000D+00  0.0000000000000D+00
330  3.2900000000000D+00  0.0000000000000D+00  0.0000000000000D+00
331  3.3000000000000D+00  0.0000000000000D+00  0.0000000000000D+00
332  3.3100000000000D+00  0.0000000000000D+00  0.0000000000000D+00
333  3.3200000000000D+00  0.0000000000000D+00  0.0000000000000D+00
334  3.3300000000000D+00  0.0000000000000D+00  0.0000000000000D+00
335  3.3400000000000D+00  0.0000000000000D+00  0.0000000000000D+00
336  3.3500000000000D+00  0.0000000000000D+00  0.0000000000000D+00
337  3.3600000000000D+00  0.0000000000000D+00  0.0000000000000D+00
338  3.3700000000000D+00  0.0000000000000D+00  0.0000000000000D+00
339  3.3800000000000D+00  0.0000000000000D+00  0.0000000000000D+00
340  3.3900000000000D+00  0.0000000000000D+00  0.0000000000000D+00
341  3.4000000000000D+00  0.0000000000000D+00  0.0000000000000D+00
342  3.4100000000000D+00  0.0000000000000D+00  0.0000000000000D+00
343  3.4200000000000D+00  0.0000000000000D+00  0.0000000000000D+00
344  3.4300000000000D+00  0.0000000000000D+00  0.0000000000000D+00
345  3.4400000000000D+00  0.0000000000000D+00  0.0000000000000D+00
346  3.4500000000000D+00  0.0000000000000D+00  0.0000000000000D+00
347  3.4600000000000D+00  0.0000000000000D+00  0.0000000000000D+00
348  3.4700000000000D+00  0.0000000000000D+00  0.0000000000000D+00
349  3.4800000000000D+00  0.0000000000000D+00  0.0000000000000D+00
350  3.4900000000000D+00  0.0000000000000D+00  0.0000000000000D+00
351  3.5000000000000D+00  0.0000000000000D+00  0.0000000000000D+00
352  3.5100000000000D+00  0.0000000000000D+00  0.0000000000000D+00
353  3.5200000000000D+00  0.0000000000000D+00  0.0000000000000D+00
354  3.5300000000000D+00  0.0000000000000D+00  0.0000000000000D+00
355  3.5400000000000D+00  0.0000000000000D+00  0.0000000000000D+00
356  3.5500000000000D+00  0.0000000000000D+00  0.0000000000000D+00
357  3.5600000000000D+00  0.0000000000000D+00  0.0000000000000D+00
358  3.5700000000000D+00  0.0000000000000D+00  0.0000000000000D+00
359  3.5800000000000D+00  0.0000000000000D+00  0.0000000000000D+00
360  3.5900000000000D+00  0.0000000000000D+00  0.0000000000000D+00
361  3.6000000000000D+00  0.0000000000000D+00  0.0000000000000D+00
362  3.6100000000000D+00  0.0000000000000D+00  0.0000000000000D+00
363  3.6200000000000D+00  0.0000000000000D+00  0.0000000000000D+00
364  3.6300000000000D+00  0.0000000000000D+00  0.0000000000000D+00
365  3.6400000000000D+00  0.0000000000000D+00  0.0000000000000D+00
366  3.6500000000000D+00  0.0000000000000D+00  0.0000000000000D+00
367  3.6600000000000D+00  0.0000000000000D+00  0.0000000000000D+00
368  3.6700000000000D+00  0.0000000000000D+00  0.0000000000000D+00
369  3.6800000000000D+00  0.0000000000000D+00  0.0000000000000D+00
370  3.6900000000000D+00  0.0000000000000D+00  0.0000000000000D+00
371  3.7000000000000D+00  0.0000000000000D+00  0.0000000000000D+00
372  3.7100000000000D+00  0.0000000000000D+00  0.0000000000000D+00
373  3.7200000000000D+00  0.0000000000000D+00  0.0000000000000D+00
374  3.7300000000000D+00  0.0000000000000D+00  0.0000000000000D+00
375  3.7400000000000D+00  0.0000000000000D+00  0.0000000000000D+00
376  3.7500000000000D+00  0.0000000000000D+00  0.0000000000000D+00
377  3.7600000000000D+00  0.0000000000000D+00  0.0000000000000D+00
378  3.7700000000000D+00  0.0000000000000D+00  0.0000000000000D+00
379  3.7800000000000D+00  0.0000000000000D+00  0.0000000000000D+00
380  3.7900000000000D+00  0.0000000000000D+00  0.0000000000000D+00
381  3.8000000000000D+00  0.0000000000000D+00  0.0000000000000D+00
382  3.8100000000000D+00  0.0000000000000D+00  0.0000000000000D+00
383  3.8200000000000D+00  0.0000000000000D+00  0.0000000000000D+00
384  3.8300000000000D+00  0.0000000000000D+00  0.0000000000000D+00
385  3.8400000000000D+00  0.0000000000000D+00  0.0000000000000D+00
386  3.8500000000000D+00  0.0000000000000D+00  0.0000000000000D+00
387  3.8600000000000D+00  0.0000000000000D+00  0.0000000000000D+00
388  3.8700000000000D+00  0.0000000000000D+00  0.0000000000000D+00
389  3.8800000000000D+00  0.0000000000000D+00  0.0000000000000D+00
390  3.8900000000000D+00  0.0000000000000D+00  0.0000000000000D+00
391  3.9000000000000D+00  0.0000000000000D+00  0.0000000000000D+00
392  3.9100000000000D+00  0.0000000000000D+00  0.0000000000000D+00
393  3.9200000000000D+00  0.0000000000000D+00  0.0000000000000D+00
394  3.9300000000000D+00  0.0000000000000D+00  0.0000000000000D+00
395  3.9400000000000D+00  0.0000000000000D+00  0.0000000000000D+00
396  3.9500000000000D+00  0.0000000000000D+00  0.0000000000000D+00
397  3.9600000000000D+00  0.0000000000000D+00  0.0000000000000D+00
398  3.9700000000000D+00  0.0000000000000D+00  0.0000000000000D+00
399  3.9800000000000D+00  0.0000000000000D+00  0.0000000000000D+00
400  3.9900000000000D+00  0.0000000000000D+00  0.0000000000000D+00
1                        -6.4375516200558D+00 -1.9668819109233D+00
1  0.0000000000000D+00 -2.1199356159407D-10  8.8554288207865D-10
2  1.0000000000000D-02  1.8719479269729D-03 -5.1227343613029D-04
3  2.0000000000000D-02  7.4803554053840D-03 -2.0465005016876D-03
4  3.0000000000000D-02  1.6802930561102D-02 -4.5948845521429D-03
5  4.0000000000000D-02  2.9802577178304D-02 -8.1443752939332D-03
6  5.0000000000000D-02  4.6427480512061D-02 -1.2676586700230D-02
7  6.0000000000000D-02  6.6611228317155D-02 -1.8167685556375D-02
8  7.0000000000000D-02  9.0272967959219D-02 -2.4588254037105D-02
9  8.0000000000000D-02  1.1731760068629D-01 -3.1903130603246D-02
10  9.0000000000000D-02  1.4763601432489D-01 -4.0071234327395D-02
11  1.0000000000000D-01  1.8110535581975D-01 -4.9045378504401D-02
12  1.1000000000000D-01  2.1758934515589D-01 -5.8772080060572D-02
13  1.2000000000000D-01  2.5693863228110D-01 -6.9191371836091D-02
14  1.3000000000000D-01  2.9899119868363D-01 -8.0236625267828D-02
15  1.4000000000000D-01  3.4357280526928D-01 -9.1834391337328D-02
16  1.5000000000000D-01  3.9049748812379D-01 -1.0390426786410D-01
17  1.6000000000000D-01  4.3956810363699D-01 -1.1635880131270D-01
18  1.7000000000000D-01  4.9057692430449D-01 -1.2910343124005D-01
19  1.8000000000000D-01  5.4330628631095D-01 -1.4203648533465D-01
20  1.9000000000000D-01  5.9752928973510D-01 -1.5504923269248D-01
21  2.0000000000000D-01  6.5301055190423D-01 -1.6802600253602D-01
22  2.1000000000000D-01  7.0950701406461D-01 -1.8084437501722D-01
23  2.2000000000000D-01  7.6676880112843D-01 -1.9337545005603D-01
24  2.3000000000000D-01  8.2454013381070D-01 -2.0548419936130D-01
25  2.4000000000000D-01  8.8256029198418D-01 -2.1702990586711D-01
26  2.5000000000000D-01  9.4056462756348D-01 -2.2786669380545D-01
27  2.6000000000000D-01  9.9828562468439D-01 -2.3784415153627D-01
28  2.7000000000000D-01  1.0554540043788D+00 -2.4680804808039D-01
29  2.8000000000000D-01  1.1117998703649D+00 -2.5460114306331D-01
30  2.9000000000000D-01  1.1670538919833D+00 -2.6106408849262D-01
31  3.0000000000000D-01  1.2209485197206D+00 -2.6603641947428D-01
32  3.1000000000000D-01  1.2732192281789D+00 -2.6935762963892D-01
33  3.2000000000000D-01  1.3236057807816D+00 -2.7086832571537D-01
34  3.3000000000000D-01  1.3718535099567D+00 -2.7041145437140D-01
35  3.4000000000000D-01  1.4177146060269D+00 -2.6783359315839D-01
36  3.5000000000000D-01  1.4609494075498D+00 -2.6298629616386D-01
37  3.6000000000000D-01  1.5013276854207D+00 -2.5572748381017D-01
38  3.7000000000000D-01  1.5386299126654D+00 -2.4592286515585D-01
39  3.8000000000000D-01  1.5726485115259D+00 -2.3344738007267D-01
40  3.9000000000000D-01  1.6031890691804D+00 -2.1818664780189D-01
41  4.0000000000000D-01  1.6300715132526D+00 -2.0003840765099D-01
42  4.1000000000000D-01  1.6531312381469D+00 -1.7891393698922D-01
43  4.2000000000000D-01  1.6722201732176D+00 -1.5473943124849D-01