<?xml version="1.0" encoding="UTF-8" ?>
<psml version="1.1" energy_unit="hartree" length_unit="bohr"
 uuid="d0ffa9d0-515b-11e8-6776-b995ffd78e38"
 xmlns="http://esl.cecam.org/PSML/ns/1.1">
<provenance creator="ONCVPSP-3.3.0+psml-3.3.0-73 (fully-relativistic)"
 date="2018-05-06">
<annotation action="semilocal-pseudopotential-generation"
 action-cont="projectors-generation" />
<input-file name="oncvpsp-input">
<![CDATA[# atsym z nc nv iexc psfile
Ne 10 1 2 4 both
# n l f
1 0 2.0
2 0 2.0
2 1 6.0
# lmax
1
# l rc ep ncon nbas qcut
0 1.3 0.0 4 7 9.0
1 1.5 0.0 4 7 8.8
# lloc lpopt rc5 dvloc0
4 5 1.3 0.0
# l nproj debl
0 2 1.5
1 2 1.5
# icmod fcfact
0 0.05
# epsh1 epsh2 depsh
-12.0 12.0 0.02
# rlmax drl
4.0 0.01
 0
]]>
</input-file>
</provenance>
<pseudo-atom-spec atomic-label="Ne" atomic-number="10" z-pseudo="8"
 flavor="Hamann&apos;s oncvpsp" relativity="dirac" spin-dft="no"
 core-corrections="no">
<annotation pseudo-energy="-33.9158435608" />
<exchange-correlation>
<annotation oncvpsp-xc-code="4" oncvpsp-xc-type="GGA -- Perdew-Burke-Ernzerhof" />
<libxc-info number-of-functionals="2">
<functional name="Perdew, Burke &amp; Ernzerhof (GGA)" type="exchange" id="101" />
<functional name="Perdew, Burke &amp; Ernzerhof (GGA)" type="correlation"
 id="130" />
</libxc-info>
</exchange-correlation>
<valence-configuration total-valence-charge="8">
<shell n="2" l="s" occupation="2" />
<shell n="2" l="p" occupation="6" />
</valence-configuration>
</pseudo-atom-spec>
<grid npts="457">
<annotation type="sampled from oncvpsp log grid"
 recipe="r(i:1..N) = r1*exp(a*(i-1)) + r=0; resampled"
 recipe-cont="r1: scale; a: step" scale="0.500000000000E-04"
 step="0.119285708653E-01" delta="0.500000000000E-02" rmax="44.2790565342" />
<grid-data>
  0.000000000000E+00  5.056247722070E-03  1.009945802476E-02  1.515079750118E-02
  2.017287482746E-02  2.530448665413E-02  3.062567936492E-02  3.576287246250E-02
  4.077725916977E-02  4.594340263175E-02  5.115025098203E-02  5.627193755841E-02
  6.190645980780E-02  6.729759692282E-02  7.315822235107E-02  7.858618733336E-02
  8.441687948565E-02  8.960492005827E-02  9.511180403221E-02  1.009571266888E-01
  1.071616875840E-01  1.123987792098E-01  1.178918123882E-01  1.236532952216E-01
  1.296963470949E-01  1.360347285499E-01  1.426828726186E-01  1.478813415899E-01
  1.532692101656E-01  1.588533788796E-01  1.646409996776E-01  1.706394850775E-01
  1.768565176628E-01  1.833000599224E-01  1.899783644480E-01  1.968999845042E-01
  2.040737849828E-01  2.115089537568E-01  2.166156259363E-01  2.218455936089E-01
  2.272018336210E-01  2.326873946919E-01  2.383053991494E-01  2.440590447064E-01
  2.499516062818E-01  2.559864378639E-01  2.621669744197E-01  2.684967338501E-01
  2.749793189921E-01  2.816184196699E-01  2.884178147944E-01  2.953813745148E-01
  3.025130624211E-01  3.098169378002E-01  3.172971579464E-01  3.249579805279E-01
  3.328037660097E-01  3.408389801363E-01  3.490681964727E-01  3.574960990083E-01
  3.661274848228E-01  3.749672668164E-01  3.840204765064E-01  3.932922668911E-01
  4.027879153830E-01  4.125128268120E-01  4.224725365025E-01  4.275422069405E-01
  4.326727134238E-01  4.378647859849E-01  4.431191634167E-01  4.484365933777E-01
  4.538178324983E-01  4.592636464882E-01  4.647748102461E-01  4.703521079691E-01
  4.759963332647E-01  4.817082892639E-01  4.874887887350E-01  4.933386541998E-01
  4.992587180502E-01  5.052498226668E-01  5.113128205389E-01  5.174485743853E-01
  5.236579572779E-01  5.299418527653E-01  5.363011549985E-01  5.427367688584E-01
  5.492496100847E-01  5.558406054058E-01  5.625106926706E-01  5.692608209827E-01
  5.760919508345E-01  5.830050542445E-01  5.900011148954E-01  5.970811282742E-01
  6.042461018134E-01  6.114970550352E-01  6.188350196956E-01  6.262610399320E-01
  6.337761724112E-01  6.413814864801E-01  6.490780643179E-01  6.568670010897E-01
  6.647494051028E-01  6.727263979640E-01  6.807991147396E-01  6.889687041164E-01
  6.972363285658E-01  7.056031645086E-01  7.140704024827E-01  7.226392473125E-01
  7.313109182803E-01  7.400866492996E-01  7.489676890912E-01  7.579553013603E-01
  7.670507649766E-01  7.762553741564E-01  7.855704386462E-01  7.949972839100E-01
  8.045372513169E-01  8.141916983327E-01  8.239619987127E-01  8.338495426973E-01
  8.438557372096E-01  8.539820060561E-01  8.642297901288E-01  8.746005476104E-01
  8.850957541817E-01  8.957169032319E-01  9.064655060706E-01  9.173430921435E-01
  9.283512092492E-01  9.394914237602E-01  9.507653208453E-01  9.621745046955E-01
  9.737205987518E-01  9.854052459368E-01  9.972301088881E-01  1.009196870195E+00
  1.021307232637E+00  1.033562919429E+00  1.045965674462E+00  1.058517262555E+00
  1.071219469706E+00  1.084074103343E+00  1.097082992583E+00  1.110247988494E+00
  1.123570964356E+00  1.137053815928E+00  1.150698461719E+00  1.164506843260E+00
  1.178480925379E+00  1.192622696483E+00  1.206934168841E+00  1.221417378867E+00
  1.236074387414E+00  1.250907280063E+00  1.265918167423E+00  1.281109185432E+00
  1.296482495658E+00  1.312040285605E+00  1.327784769033E+00  1.343718186261E+00
  1.359842804496E+00  1.376160918150E+00  1.392674849168E+00  1.409386947358E+00
  1.426299590726E+00  1.443415185815E+00  1.460736168045E+00  1.478265002061E+00
  1.496004182086E+00  1.513956232271E+00  1.532123707058E+00  1.550509191543E+00
  1.569115301842E+00  1.587944685464E+00  1.607000021689E+00  1.626284021949E+00
  1.645799430213E+00  1.665549023375E+00  1.685535611656E+00  1.705762038996E+00
  1.726231183464E+00  1.746945957665E+00  1.767909309157E+00  1.789124220867E+00
  1.810593711518E+00  1.832320836056E+00  1.854308686088E+00  1.876560390322E+00
  1.899079115005E+00  1.921868064385E+00  1.944930481158E+00  1.968269646932E+00
  1.991888882695E+00  2.015791549288E+00  2.039981047879E+00  2.064460820454E+00
  2.089234350299E+00  2.114305162503E+00  2.139676824453E+00  2.165352946346E+00
  2.191337181702E+00  2.217633227883E+00  2.244244826617E+00  2.271175764537E+00
  2.298429873711E+00  2.326011032196E+00  2.353923164582E+00  2.382170242557E+00
  2.410756285468E+00  2.439685360893E+00  2.468961585224E+00  2.498589124247E+00
  2.528572193738E+00  2.558915060062E+00  2.589622040783E+00  2.620697505273E+00
  2.652145875336E+00  2.683971625840E+00  2.716179285350E+00  2.748773436774E+00
  2.781758718015E+00  2.815139822632E+00  2.848921500503E+00  2.883108558509E+00
  2.917705861211E+00  2.952718331546E+00  2.988150951524E+00  3.024008762943E+00
  3.060296868098E+00  3.097020430515E+00  3.134184675681E+00  3.171794891790E+00
  3.209856430491E+00  3.248374707657E+00  3.287355204149E+00  3.326803466599E+00
  3.366725108198E+00  3.407125809496E+00  3.448011319210E+00  3.489387455041E+00
  3.531260104501E+00  3.573635225755E+00  3.616518848464E+00  3.659917074646E+00
  3.703836079541E+00  3.748282112496E+00  3.793261497846E+00  3.838780635820E+00
  3.884846003450E+00  3.931464155491E+00  3.978641725357E+00  4.026385426062E+00
  4.074702051174E+00  4.123598475788E+00  4.173081657498E+00  4.223158637388E+00
  4.273836541036E+00  4.325122579529E+00  4.377024050483E+00  4.429548339089E+00
  4.482702919158E+00  4.536495354188E+00  4.590933298438E+00  4.646024498020E+00
  4.701776791996E+00  4.758198113500E+00  4.815296490862E+00  4.873080048752E+00
  4.931557009337E+00  4.990735693449E+00  5.050624521770E+00  5.111232016032E+00
  5.172566800224E+00  5.234637601827E+00  5.297453253049E+00  5.361022692085E+00
  5.425354964390E+00  5.490459223963E+00  5.556344734651E+00  5.623020871466E+00
  5.690497121924E+00  5.758783087387E+00  5.827888484436E+00  5.897823146249E+00
  5.968597024004E+00  6.040220188292E+00  6.112702830551E+00  6.186055264518E+00
  6.260287927692E+00  6.335411382825E+00  6.411436319419E+00  6.488373555252E+00
  6.566234037915E+00  6.645028846370E+00  6.724769192526E+00  6.805466422836E+00
  6.887132019910E+00  6.969777604149E+00  7.053414935399E+00  7.138055914624E+00
  7.223712585599E+00  7.310397136626E+00  7.398121902266E+00  7.486899365093E+00
  7.576742157474E+00  7.667663063364E+00  7.759675020124E+00  7.852791120366E+00
  7.947024613810E+00  8.042388909176E+00  8.138897576086E+00  8.236564346999E+00
  8.335403119163E+00  8.435427956593E+00  8.536653092072E+00  8.639092929177E+00
  8.742762044327E+00  8.847675188859E+00  8.953847291125E+00  9.061293458619E+00
  9.170028980122E+00  9.280069327884E+00  9.391430159818E+00  9.504127321736E+00
  9.618176849597E+00  9.733594971792E+00  9.850398111454E+00  9.968602888791E+00
  1.008822612346E+01  1.020928483694E+01  1.033179625498E+01  1.045577781004E+01
  1.058124714376E+01  1.070822210949E+01  1.083672077480E+01  1.096676142410E+01
  1.109836256119E+01  1.123154291192E+01  1.136632142686E+01  1.150271728399E+01
  1.164074989140E+01  1.178043889009E+01  1.192180415677E+01  1.206486580665E+01
  1.220964419633E+01  1.235615992669E+01  1.250443384581E+01  1.265448705196E+01
  1.280634089658E+01  1.296001698734E+01  1.311553719119E+01  1.327292363748E+01
  1.343219872113E+01  1.359338510579E+01  1.375650572706E+01  1.392158379578E+01
  1.408864280133E+01  1.425770651495E+01  1.442879899313E+01  1.460194458104E+01
  1.477716791602E+01  1.495449393101E+01  1.513394785818E+01  1.531555523248E+01
  1.549934189527E+01  1.568533399801E+01  1.587355800599E+01  1.606404070206E+01
  1.625680919049E+01  1.645189090077E+01  1.664931359158E+01  1.684910535468E+01
  1.705129461894E+01  1.725591015436E+01  1.746298107622E+01  1.767253684913E+01
  1.788460729132E+01  1.809922257882E+01  1.831641324976E+01  1.853621020876E+01
  1.875864473126E+01  1.898374846804E+01  1.921155344965E+01  1.944209209105E+01
  1.967539719614E+01  1.991150196250E+01  2.015043998605E+01  2.039224526588E+01
  2.063695220907E+01  2.088459563558E+01  2.113521078321E+01  2.138883331260E+01
  2.164549931236E+01  2.190524530410E+01  2.216810824775E+01  2.243412554673E+01
  2.270333505329E+01  2.297577507393E+01  2.325148437481E+01  2.353050218731E+01
  2.381286821356E+01  2.409862263212E+01  2.438780610371E+01  2.468045977695E+01
  2.497662529428E+01  2.527634479781E+01  2.557966093538E+01  2.588661686660E+01
  2.619725626900E+01  2.651162334423E+01  2.682976282436E+01  2.715171997826E+01
  2.747754061799E+01  2.780727110541E+01  2.814095835868E+01  2.847864985898E+01
  2.882039365729E+01  2.916623838117E+01  2.951623324175E+01  2.987042804065E+01
  3.022887317714E+01  3.059161965526E+01  3.095871909113E+01  3.133022372022E+01
  3.170618640486E+01  3.208666064172E+01  3.247170056942E+01  3.286136097625E+01
  3.325569730797E+01  3.365476567566E+01  3.405862286377E+01  3.446732633814E+01
  3.488093425420E+01  3.529950546525E+01  3.572309953083E+01  3.615177672520E+01
  3.658559804590E+01  3.702462522245E+01  3.746892072512E+01  3.791854777382E+01
  3.837357034711E+01  3.883405319127E+01  3.930006182957E+01  3.977166257152E+01
  4.024892252238E+01  4.073190959265E+01  4.122069250776E+01  4.171534081786E+01
  4.221592490767E+01  4.272251600656E+01  4.323518619864E+01  4.375400843303E+01
  4.427905653422E+01
</grid-data>
</grid>
<valence-charge total-charge="8" is-unscreening-charge="yes"
 rescaled-to-z-pseudo="no">
<radfunc>
<data npts="457">
  1.103494089439E+01  1.103986346812E+01  1.105457331478E+01  1.107909659713E+01
  1.111315542102E+01  1.115787379968E+01  1.121475924648E+01  1.127975006196E+01
  1.135263674429E+01  1.143738222746E+01  1.153257992776E+01  1.163566294796E+01
  1.175970240991E+01  1.188861575374E+01  1.203985682195E+01  1.219000111864E+01
  1.236178196323E+01  1.252351185663E+01  1.270405038078E+01  1.290534231510E+01
  1.312946703598E+01  1.332668342490E+01  1.354109920210E+01  1.377392748328E+01
  1.402640438042E+01  1.429977330989E+01  1.459526478662E+01  1.483212072452E+01
  1.508257125656E+01  1.534706402586E+01  1.562600519812E+01  1.591974747279E+01
  1.622857638736E+01  1.655269477461E+01  1.689220524177E+01  1.724709055547E+01
  1.761719184043E+01  1.800218453403E+01  1.826687299475E+01  1.853774855550E+01
  1.881455745742E+01  1.909699428441E+01  1.938469765326E+01  1.967724577220E+01
  1.997415189583E+01  2.027485971118E+01  2.057873869666E+01  2.088507950433E+01
  2.119308942439E+01  2.150188800104E+01  2.181050287880E+01  2.211786597004E+01
  2.242281004592E+01  2.272406586514E+01  2.302025996735E+01  2.330991327040E+01
  2.359144062267E+01  2.386315147299E+01  2.412325183079E+01  2.436984769750E+01
  2.460095015608E+01  2.481448230867E+01  2.500828825080E+01  2.518014426516E+01
  2.532777240563E+01  2.544885662417E+01  2.554106156605E+01  2.557560447759E+01
  2.560205412402E+01  2.562012321444E+01  2.562952779645E+01  2.562998816925E+01
  2.562122983833E+01  2.560298451044E+01  2.557499112700E+01  2.553699693391E+01
  2.548875858529E+01  2.543004327806E+01  2.536062991426E+01  2.528031028705E+01
  2.518889028620E+01  2.508619111839E+01  2.497205053693E+01  2.484632407523E+01
  2.470888627772E+01  2.455963192161E+01  2.439847722207E+01  2.422536101336E+01
  2.404024589759E+01  2.384311935268E+01  2.363399479051E+01  2.341291255600E+01
  2.317994085753E+01  2.293517661884E+01  2.267874624256E+01  2.241080627510E+01
  2.213154396289E+01  2.184117769010E+01  2.153995728772E+01  2.122816420477E+01
  2.090611153232E+01  2.057414387182E+01  2.023263703979E+01  1.988199760181E+01
  1.952266222948E+01  1.915509687536E+01  1.877979576198E+01  1.839728018221E+01
  1.800809711015E+01  1.761281762281E+01  1.721203513504E+01  1.680636345161E+01
  1.639643464251E+01  1.598289674940E+01  1.556641133314E+01  1.514765087449E+01
  1.472729604206E+01  1.430603284345E+01  1.388454967785E+01  1.346353430980E+01
  1.304367078578E+01  1.262563631684E+01  1.221009815168E+01  1.179771046591E+01
  1.138911129377E+01  1.098491952954E+01  1.058573202552E+01  1.019212081387E+01
  9.804630478574E+00  9.423775703197E+00  9.050039018616E+00  8.683868773245E+00
  8.325677346161E+00  7.975839621089E+00  7.634691736389E+00  7.302530123116E+00
  6.979610839869E+00  6.666149209603E+00  6.362319759939E+00  6.068256464725E+00
  5.784053280945E+00  5.509764971392E+00  5.245408200101E+00  4.990962884285E+00
  4.746373783643E+00  4.511552305373E+00  4.286378501131E+00  4.070703230588E+00
  3.864350465106E+00  3.667119704503E+00  3.478788479771E+00  3.299114915064E+00
  3.127840323117E+00  2.964691809507E+00  2.809384862754E+00  2.661625909005E+00
  2.521114811984E+00  2.387547300818E+00  2.260617310180E+00  2.140019218905E+00
  2.025449974642E+00  1.916611093239E+00  1.813210637657E+00  1.714965509465E+00
  1.621603852974E+00  1.532866308542E+00  1.448507084855E+00  1.368294835810E+00
  1.292013332735E+00  1.219461921270E+00  1.150455752578E+00  1.084825779713E+00
  1.022418511941E+00  9.630955227516E-01  9.067319498329E-01  8.532118147788E-01
  8.024217176837E-01  7.542509347994E-01  7.085914231611E-01  6.653378711400E-01
  6.243877395569E-01  5.856412938060E-01  5.490016274359E-01  5.143746776391E-01
  4.816692330968E-01  4.507969346216E-01  4.216722690382E-01  3.942125567326E-01
  3.683379332961E-01  3.439713256760E-01  3.210384232433E-01  2.994676441683E-01
  2.791900974918E-01  2.601395412618E-01  2.422523370985E-01  2.254674015343E-01
  2.097261544659E-01  1.949724650409E-01  1.811525952894E-01  1.682151417992E-01
  1.561109757184E-01  1.447931813589E-01  1.342169936593E-01  1.243397347548E-01
  1.151207498895E-01  1.065213428910E-01  9.850471142047E-02  9.103588219229E-02
  8.408164635194E-02  7.761049518384E-02  7.159255631178E-02  6.599953054179E-02
  6.080462948606E-02  5.598251409502E-02  5.150923421348E-02  4.736216926594E-02
  4.351997016510E-02  3.996250252737E-02  3.667079126884E-02  3.362696664525E-02
  3.081421178999E-02  2.821671179488E-02  2.581960436966E-02  2.360893210766E-02
  2.157159637725E-02  1.969531285072E-02  1.796856867561E-02  1.638058128636E-02
  1.492125884840E-02  1.358116232059E-02  1.235146911716E-02  1.122393834523E-02
  1.019087758983E-02  9.245111214445E-03  8.379950142021E-03  7.589163078094E-03
  6.866949135657E-03  6.207911819147E-03  5.607034323422E-03  5.059656102388E-03
  4.561450661123E-03  4.108404524819E-03  3.696797337764E-03  3.323183045646E-03
  2.984372114882E-03  2.677414743309E-03  2.399585017360E-03  2.148365971869E-03
  1.921435509796E-03  1.716653140406E-03  1.532047495783E-03  1.365804586993E-03
  1.216256762656E-03  1.081872334160E-03  9.612458332602E-04  8.530888692524E-04
  7.562215543947E-04  6.695644676428E-04  5.921311281582E-04  5.230209513721E-04
  4.614126616626E-04  4.065581369236E-04  3.577766614703E-04  3.144495648288E-04
  2.760152250139E-04  2.419644158947E-04  2.118359791967E-04  1.852128025886E-04
  1.617180861578E-04  1.410118803890E-04  1.227878795418E-04  1.067704550572E-04
  9.271191433575E-05  8.038997091053E-05  6.960541268714E-05  6.017995555738E-05
  5.195427029693E-05  4.478617124539E-05  3.854895583441E-05  3.312988457937E-05
  2.842879168301E-05  2.435681691564E-05  2.083524993757E-05  1.779447871437E-05
  1.517303414593E-05  1.291672348477E-05  1.097784555904E-05  9.314481240117E-06
  7.889853003793E-06  6.671747828205E-06  5.631998049787E-06  4.746015161527E-06
  3.992371884926E-06  3.352428178655E-06  2.809997162767E-06  2.351047237658E-06
  1.963436961790E-06  1.636679521753E-06  1.361733882593E-06  1.130819946008E-06
  9.372552689834E-07  7.753111063904E-07  6.400857381653E-07  5.273932254696E-07
  4.336659111727E-07  3.558691385443E-07  2.914268087657E-07  2.381565332723E-07
  1.942132615938E-07  1.580403798136E-07  1.283273795924E-07  1.039732934531E-07
  8.405517926738E-08  6.780101615773E-08  5.456644589126E-08  4.381485879171E-08
  3.510038176651E-08  2.805337870913E-08  2.236812077109E-08  1.779232624731E-08
  1.411830750905E-08  1.117549595206E-08  8.824145681864E-09  6.950042988023E-09
  5.460071894756E-09  4.278506525065E-09  3.343918962762E-09  2.606607005004E-09
  2.026459907658E-09  1.571192157890E-09  1.214885663804E-09  9.367897126722E-10
  7.203357825021E-10  5.523309452403E-10  4.222993088584E-10  3.219458290115E-10
  2.447209812351E-10  1.854683337317E-10  1.401400648436E-10  1.055680695915E-10
  7.927966144859E-11  5.935218964369E-11  4.429409252233E-11  3.295138567262E-11
  2.443450730572E-11  1.806003303053E-11  1.330458586985E-11  9.768652480275E-12
  7.148268232667E-12  5.212932426498E-12  3.788439892306E-12  2.743579293005E-12
  1.979862257345E-12  1.423620027301E-12  1.019943056759E-12  7.280500894556E-13
  5.177627392148E-13  3.668299337245E-13  2.589066515122E-13  1.820311992162E-13
  1.274829199481E-13  8.892844392188E-14  6.178604511535E-14  4.275422373495E-14
  2.946345966525E-14  2.021998447788E-14  1.381798775161E-14  0.000000000000E+00
  0.000000000000E+00  0.000000000000E+00  0.000000000000E+00  0.000000000000E+00
  0.000000000000E+00  0.000000000000E+00  0.000000000000E+00  0.000000000000E+00
  0.000000000000E+00  0.000000000000E+00  0.000000000000E+00  0.000000000000E+00
  0.000000000000E+00  0.000000000000E+00  0.000000000000E+00  0.000000000000E+00
  0.000000000000E+00  0.000000000000E+00  0.000000000000E+00  0.000000000000E+00
  0.000000000000E+00  0.000000000000E+00  0.000000000000E+00  0.000000000000E+00
  0.000000000000E+00  0.000000000000E+00  0.000000000000E+00  0.000000000000E+00
  0.000000000000E+00  0.000000000000E+00  0.000000000000E+00  0.000000000000E+00
  0.000000000000E+00  0.000000000000E+00  0.000000000000E+00  0.000000000000E+00
  0.000000000000E+00  0.000000000000E+00  0.000000000000E+00  0.000000000000E+00
  0.000000000000E+00  0.000000000000E+00  0.000000000000E+00  0.000000000000E+00
  0.000000000000E+00  0.000000000000E+00  0.000000000000E+00  0.000000000000E+00
  0.000000000000E+00  0.000000000000E+00  0.000000000000E+00  0.000000000000E+00
  0.000000000000E+00  0.000000000000E+00  0.000000000000E+00  0.000000000000E+00
  0.000000000000E+00  0.000000000000E+00  0.000000000000E+00  0.000000000000E+00
  0.000000000000E+00  0.000000000000E+00  0.000000000000E+00  0.000000000000E+00
  0.000000000000E+00  0.000000000000E+00  0.000000000000E+00  0.000000000000E+00
  0.000000000000E+00  0.000000000000E+00  0.000000000000E+00  0.000000000000E+00
  0.000000000000E+00  0.000000000000E+00  0.000000000000E+00  0.000000000000E+00
  0.000000000000E+00  0.000000000000E+00  0.000000000000E+00  0.000000000000E+00
  0.000000000000E+00  0.000000000000E+00  0.000000000000E+00  0.000000000000E+00
  0.000000000000E+00  0.000000000000E+00  0.000000000000E+00  0.000000000000E+00
  0.000000000000E+00
</data>
</radfunc>
</valence-charge>
<semilocal-potentials set="scalar_relativistic">
<slps n="2" l="s" rc="1.31204028561">
<radfunc>
<data npts="256">
 -1.340539755575E+01 -1.341133532036E+01 -1.342819990868E+01 -1.345422001612E+01
 -1.348645396577E+01 -1.352282506512E+01 -1.356098259291E+01 -1.359564488645E+01
 -1.362563709632E+01 -1.365144442970E+01 -1.367168685097E+01 -1.368588877289E+01
 -1.369529402669E+01 -1.369874947235E+01 -1.369713376088E+01 -1.369138716783E+01
 -1.368143888603E+01 -1.366988909616E+01 -1.365538431871E+01 -1.363797151047E+01
 -1.361772716664E+01 -1.359955804503E+01 -1.357969501776E+01 -1.355819676699E+01
 -1.353512248389E+01 -1.351053039362E+01 -1.348447699983E+01 -1.346401098406E+01
 -1.344277653658E+01 -1.342079636733E+01 -1.339809359719E+01 -1.337469222546E+01
 -1.335061761688E+01 -1.332589696256E+01 -1.330055966341E+01 -1.327463758036E+01
 -1.324816509086E+01 -1.322117888531E+01 -1.320292163174E+01 -1.318446479037E+01
 -1.316582000334E+01 -1.314699866724E+01 -1.312801163554E+01 -1.310886884770E+01
 -1.308957887203E+01 -1.307014834739E+01 -1.305058130606E+01 -1.303087835809E+01
 -1.301103571555E+01 -1.299104403438E+01 -1.297088705272E+01 -1.295054000843E+01
 -1.292996782691E+01 -1.290912308367E+01 -1.288794376752E+01 -1.286635089933E+01
 -1.284424610017E+01 -1.282150924994E+01 -1.279799643096E+01 -1.277353840469E+01
 -1.274793991483E+01 -1.272098013343E+01 -1.269241455319E+01 -1.266197856296E+01
 -1.262939281331E+01 -1.259437028424E+01 -1.255662472092E+01 -1.253664381859E+01
 -1.251587983976E+01 -1.249430131075E+01 -1.247187847612E+01 -1.244858351268E+01
 -1.242439070489E+01 -1.239927657575E+01 -1.237321996860E+01 -1.234620207693E+01
 -1.231820642096E+01 -1.228921877187E+01 -1.225922702609E+01 -1.222822103427E+01
 -1.219619239075E+01 -1.216313419077E+01 -1.212904076376E+01 -1.209390739126E+01
 -1.205773001857E+01 -1.202050496871E+01 -1.198222866688E+01 -1.194289738264E+01
 -1.190250699604E+01 -1.186105279264E+01 -1.181852929102E+01 -1.177493010519E+01
 -1.173024784282E+01 -1.168447403938E+01 -1.163759912701E+01 -1.158961243614E+01
 -1.154050222759E+01 -1.149025575177E+01 -1.143885933203E+01 -1.138629846859E+01
 -1.133255795960E+01 -1.127762203624E+01 -1.122147450859E+01 -1.116409891962E+01
 -1.110547870478E+01 -1.104559735496E+01 -1.098443858116E+01 -1.092198647931E+01
 -1.085822569403E+01 -1.079314158067E+01 -1.072672036485E+01 -1.065894929921E+01
 -1.058981681737E+01 -1.051931268502E+01 -1.044742814844E+01 -1.037415608089E+01
 -1.029949112730E+01 -1.022342984796E+01 -1.014597086197E+01 -1.006711499120E+01
 -9.986865405778E+00 -9.905227771995E+00 -9.822210403788E+00 -9.737824418782E+00
 -9.652083900082E+00 -9.565006064927E+00 -9.476611441295E+00 -9.386924053541E+00
 -9.295971618009E+00 -9.203785749481E+00 -9.110402179137E+00 -9.015860984498E+00
 -8.920206831611E+00 -8.823489229486E+00 -8.725762796542E+00 -8.627087538624E+00
 -8.527529137988E+00 -8.427159252612E+00 -8.326055825261E+00 -8.224303402032E+00
 -8.121993460572E+00 -8.019224748956E+00 -7.916103637238E+00 -7.812744485017E+00
 -7.709270030013E+00 -7.605811804447E+00 -7.502510588085E+00 -7.399516908797E+00
 -7.296991603469E+00 -7.195106453680E+00 -7.094044911612E+00 -6.994002931811E+00
 -6.895189923353E+00 -6.797829834339E+00 -6.702162375982E+00 -6.608444386673E+00
 -6.516951326792E+00 -6.427978882786E+00 -6.341844643962E+00 -6.258889797973E+00
 -6.179480675459E+00 -6.104011274148E+00 -6.031070542353E+00 -5.958879446743E+00
 -5.887494357282E+00 -5.816936152689E+00 -5.747226092926E+00 -5.678384550295E+00
 -5.610429449598E+00 -5.543374504359E+00 -5.477227362550E+00 -5.411987828000E+00
 -5.347646957563E+00 -5.284179698798E+00 -5.221524981231E+00 -5.159608766093E+00
 -5.098427274896E+00 -5.037971235225E+00 -4.978232081583E+00 -4.919201312572E+00
 -4.860870527621E+00 -4.803231425794E+00 -4.746275804610E+00 -4.689995558880E+00
 -4.634382679553E+00 -4.579429252582E+00 -4.525127457792E+00 -4.471469567774E+00
 -4.418447946782E+00 -4.366055049649E+00 -4.314283420710E+00 -4.263125692745E+00
 -4.212574585926E+00 -4.162622906782E+00 -4.113263547170E+00 -4.064489483271E+00
 -4.016293774591E+00 -3.968669562927E+00 -3.921610071370E+00 -3.875108603944E+00
 -3.829158542853E+00 -3.783753350157E+00 -3.738886564693E+00 -3.694551802122E+00
 -3.650742753813E+00 -3.607453185951E+00 -3.564676938652E+00 -3.522407925079E+00
 -3.480640130575E+00 -3.439367611805E+00 -3.398584495910E+00 -3.358284979663E+00
 -3.318463328650E+00 -3.279113876444E+00 -3.240231023802E+00 -3.201809237867E+00
 -3.163843051374E+00 -3.126327061879E+00 -3.089255930982E+00 -3.052624383575E+00
 -3.016427207082E+00 -2.980659250724E+00 -2.945315424783E+00 -2.910390699882E+00
 -2.875880106265E+00 -2.841778733093E+00 -2.808081727749E+00 -2.774784295145E+00
 -2.741881697042E+00 -2.709369251380E+00 -2.677242331611E+00 -2.645496366041E+00
 -2.614126837186E+00 -2.583129281129E+00 -2.552499286885E+00 -2.522232495776E+00
 -2.492324600815E+00 -2.462771346090E+00 -2.433568526166E+00 -2.404711985483E+00
 -2.376197617766E+00 -2.348021365446E+00 -2.320179219078E+00 -2.292667216776E+00
 -2.265481443645E+00 -2.238618031225E+00 -2.212073156946E+00 -2.185843043575E+00
 -2.159923958684E+00 -2.134312214117E+00 -2.109004165464E+00 -2.083996211542E+00
 -2.059284793881E+00 -2.034866396219E+00 -2.010737543997E+00 -1.986894803867E+00
</data>
</radfunc>
</slps>
<slps n="2" l="p" rc="1.51395623227">
<radfunc>
<data npts="256">
 -2.080332014543E+01 -2.080894348561E+01 -2.082486809079E+01 -2.084931977306E+01
 -2.087937263602E+01 -2.091287505962E+01 -2.094737521188E+01 -2.097784772032E+01
 -2.100312669781E+01 -2.102343461716E+01 -2.103747432305E+01 -2.104492957695E+01
 -2.104617448482E+01 -2.104109954067E+01 -2.102941078622E+01 -2.101359339765E+01
 -2.099203492111E+01 -2.096946660805E+01 -2.094255938677E+01 -2.091118808382E+01
 -2.087523610150E+01 -2.084309685701E+01 -2.080788347005E+01 -2.076952025393E+01
 -2.072791935837E+01 -2.068297818216E+01 -2.063457742425E+01 -2.059592462843E+01
 -2.055518423430E+01 -2.051228557592E+01 -2.046715212856E+01 -2.041970160456E+01
 -2.036984605380E+01 -2.031749192364E+01 -2.026254002763E+01 -2.020488536819E+01
 -2.014441675382E+01 -2.008101614613E+01 -2.003705838806E+01 -1.999170225141E+01
 -1.994490615992E+01 -1.989662617697E+01 -1.984681564635E+01 -1.979542475978E+01
 -1.974240003887E+01 -1.968768371640E+01 -1.963121299998E+01 -1.957291919842E+01
 -1.951272668964E+01 -1.945055170832E+01 -1.938630093238E+01 -1.931986985169E+01
 -1.925114091045E+01 -1.917998142846E+01 -1.910624132768E+01 -1.902975071986E+01
 -1.895031744995E+01 -1.886772473742E+01 -1.878172911113E+01 -1.869205888734E+01
 -1.859841348587E+01 -1.850046390302E+01 -1.839785464686E+01 -1.829020737488E+01
 -1.817712634447E+01 -1.805820559282E+01 -1.793303751729E+01 -1.786798521580E+01
 -1.780122226551E+01 -1.773270143753E+01 -1.766237711437E+01 -1.759020551450E+01
 -1.751614487949E+01 -1.744015561795E+01 -1.736220040188E+01 -1.728224421256E+01
 -1.720025433509E+01 -1.711620030242E+01 -1.703005379169E+01 -1.694178847766E+01
 -1.685137984916E+01 -1.675880499639E+01 -1.666404237736E+01 -1.656707157260E+01
 -1.646787303756E+01 -1.636642786163E+01 -1.626271754240E+01 -1.615672378302E+01
 -1.604842831927E+01 -1.593781278194E+01 -1.582485859874E+01 -1.570954693881E+01
 -1.559185870169E+01 -1.547177455139E+01 -1.534927499547E+01 -1.522434050808E+01
 -1.509695169569E+01 -1.496708950328E+01 -1.483473545919E+01 -1.469987195642E+01
 -1.456248256821E+01 -1.442255239619E+01 -1.428006844955E+01 -1.413502005382E+01
 -1.398739928858E+01 -1.383720145351E+01 -1.368442556268E+01 -1.352907486723E+01
 -1.337115740696E+01 -1.321068659158E+01 -1.304768181235E+01 -1.288216908514E+01
 -1.271418172577E+01 -1.254376105836E+01 -1.237095715725E+01 -1.219582962248E+01
 -1.201844838859E+01 -1.183889456539E+01 -1.165726130883E+01 -1.147365471873E+01
 -1.128819475897E+01 -1.110101619417E+01 -1.091226953477E+01 -1.072212198074E+01
 -1.053075835126E+01 -1.033838198518E+01 -1.014521559390E+01 -9.951502044886E+00
 -9.757505050219E+00 -9.563509730865E+00 -9.369823022856E+00 -9.176773887579E+00
 -8.984713284073E+00 -8.794013857261E+00 -8.605069292582E+00 -8.418293284591E+00
 -8.234118065394E+00 -8.052992438320E+00 -7.875379263591E+00 -7.701752346276E+00
 -7.532592682900E+00 -7.368384032055E+00 -7.209607786685E+00 -7.056737141389E+00
 -6.910230567411E+00 -6.770524630635E+00 -6.638026213755E+00 -6.513104232064E+00
 -6.396080962320E+00 -6.287223134577E+00 -6.186732966468E+00 -6.094739346469E+00
 -6.011289395395E+00 -5.936340652072E+00 -5.869754138065E+00 -5.811288556151E+00
 -5.760595867048E+00 -5.717218468482E+00 -5.680588170544E+00 -5.650027123014E+00
 -5.624750710055E+00 -5.603873701352E+00 -5.586421761728E+00 -5.571339913789E+00
 -5.557488126538E+00 -5.543666210473E+00 -5.528628330970E+00 -5.511100367117E+00
 -5.489799378076E+00 -5.463455393986E+00 -5.430835844971E+00 -5.390773071217E+00
 -5.342196064768E+00 -5.284159516040E+00 -5.221524981231E+00 -5.159608766093E+00
 -5.098427274896E+00 -5.037971235225E+00 -4.978232081583E+00 -4.919201312572E+00
 -4.860870527621E+00 -4.803231425794E+00 -4.746275804610E+00 -4.689995558880E+00
 -4.634382679553E+00 -4.579429252582E+00 -4.525127457792E+00 -4.471469567774E+00
 -4.418447946782E+00 -4.366055049649E+00 -4.314283420710E+00 -4.263125692745E+00
 -4.212574585926E+00 -4.162622906782E+00 -4.113263547170E+00 -4.064489483271E+00
 -4.016293774591E+00 -3.968669562927E+00 -3.921610071370E+00 -3.875108603944E+00
 -3.829158542853E+00 -3.783753350157E+00 -3.738886564693E+00 -3.694551802122E+00