<?xml version="1.0" encoding="UTF-8" ?>
<psml version="1.1" energy_unit="hartree" length_unit="bohr"
 uuid="fe9871e0-471c-11e8-4cb4-906899fba18c"
 xmlns="http://esl.cecam.org/PSML/ns/1.1">
<provenance creator="ONCVPSP-3.3.0+psml-3.3.0-73 (fully-relativistic)"
 date="2018-04-23">
<annotation action="semilocal-pseudopotential-generation"
 action-cont="projectors-generation" />
<input-file name="oncvpsp-input">
<![CDATA[# atsym z nc nv iexc psfile
Ne 10 1 2 4 both
# n l f
1 0 2.0
2 0 2.0
2 1 6.0
# lmax
1
# l rc ep ncon nbas qcut
0 1.3 0.0 4 7 8.0
1 1.7 0.0 4 7 8.0
# lloc lpopt rc5 dvloc0
4 5 1.3 0.0
# l nproj debl
0 2 1.5
1 2 1.5
# icmod fcfact rcfact
0 0.05 0.0
# epsh1 epsh2 depsh
-12.0 12.0 0.02
# rlmax drl
4.0 0.01
 0
]]>
</input-file>
</provenance>
<pseudo-atom-spec atomic-label="Ne" atomic-number="10" z-pseudo="8"
 flavor="Hamann&apos;s oncvpsp" relativity="dirac" spin-dft="no"
 core-corrections="no">
<annotation pseudo-energy="-33.3551387022" />
<exchange-correlation>
<annotation oncvpsp-xc-code="4" oncvpsp-xc-type="GGA -- Perdew-Burke-Ernzerhof" />
<libxc-info number-of-functionals="2">
<functional name="Perdew, Burke &amp; Ernzerhof (GGA)" type="exchange" id="101" />
<functional name="Perdew, Burke &amp; Ernzerhof (GGA)" type="correlation"
 id="130" />
</libxc-info>
</exchange-correlation>
<valence-configuration total-valence-charge="8">
<shell n="2" l="s" occupation="2" />
<shell n="2" l="p" occupation="6" />
</valence-configuration>
</pseudo-atom-spec>
<grid npts="457">
<annotation type="sampled from oncvpsp log grid"
 recipe="r(i:1..N) = r1*exp(a*(i-1)) + r=0; resampled"
 recipe-cont="r1: scale; a: step" scale="0.500000000000E-04"
 step="0.119285708653E-01" delta="0.500000000000E-02" rmax="44.2790565342" />
<grid-data>
  0.000000000000E+00  5.056247722070E-03  1.009945802476E-02  1.515079750118E-02
  2.017287482746E-02  2.530448665413E-02  3.062567936492E-02  3.576287246250E-02
  4.077725916977E-02  4.594340263175E-02  5.115025098203E-02  5.627193755841E-02
  6.190645980780E-02  6.729759692282E-02  7.315822235107E-02  7.858618733336E-02
  8.441687948565E-02  8.960492005827E-02  9.511180403221E-02  1.009571266888E-01
  1.071616875840E-01  1.123987792098E-01  1.178918123882E-01  1.236532952216E-01
  1.296963470949E-01  1.360347285499E-01  1.426828726186E-01  1.478813415899E-01
  1.532692101656E-01  1.588533788796E-01  1.646409996776E-01  1.706394850775E-01
  1.768565176628E-01  1.833000599224E-01  1.899783644480E-01  1.968999845042E-01
  2.040737849828E-01  2.115089537568E-01  2.166156259363E-01  2.218455936089E-01
  2.272018336210E-01  2.326873946919E-01  2.383053991494E-01  2.440590447064E-01
  2.499516062818E-01  2.559864378639E-01  2.621669744197E-01  2.684967338501E-01
  2.749793189921E-01  2.816184196699E-01  2.884178147944E-01  2.953813745148E-01
  3.025130624211E-01  3.098169378002E-01  3.172971579464E-01  3.249579805279E-01
  3.328037660097E-01  3.408389801363E-01  3.490681964727E-01  3.574960990083E-01
  3.661274848228E-01  3.749672668164E-01  3.840204765064E-01  3.932922668911E-01
  4.027879153830E-01  4.125128268120E-01  4.224725365025E-01  4.275422069405E-01
  4.326727134238E-01  4.378647859849E-01  4.431191634167E-01  4.484365933777E-01
  4.538178324983E-01  4.592636464882E-01  4.647748102461E-01  4.703521079691E-01
  4.759963332647E-01  4.817082892639E-01  4.874887887350E-01  4.933386541998E-01
  4.992587180502E-01  5.052498226668E-01  5.113128205389E-01  5.174485743853E-01
  5.236579572779E-01  5.299418527653E-01  5.363011549985E-01  5.427367688584E-01
  5.492496100847E-01  5.558406054058E-01  5.625106926706E-01  5.692608209827E-01
  5.760919508345E-01  5.830050542445E-01  5.900011148954E-01  5.970811282742E-01
  6.042461018134E-01  6.114970550352E-01  6.188350196956E-01  6.262610399320E-01
  6.337761724112E-01  6.413814864801E-01  6.490780643179E-01  6.568670010897E-01
  6.647494051028E-01  6.727263979640E-01  6.807991147396E-01  6.889687041164E-01
  6.972363285658E-01  7.056031645086E-01  7.140704024827E-01  7.226392473125E-01
  7.313109182803E-01  7.400866492996E-01  7.489676890912E-01  7.579553013603E-01
  7.670507649766E-01  7.762553741564E-01  7.855704386462E-01  7.949972839100E-01
  8.045372513169E-01  8.141916983327E-01  8.239619987127E-01  8.338495426973E-01
  8.438557372096E-01  8.539820060561E-01  8.642297901288E-01  8.746005476104E-01
  8.850957541817E-01  8.957169032319E-01  9.064655060706E-01  9.173430921435E-01
  9.283512092492E-01  9.394914237602E-01  9.507653208453E-01  9.621745046955E-01
  9.737205987518E-01  9.854052459368E-01  9.972301088881E-01  1.009196870195E+00
  1.021307232637E+00  1.033562919429E+00  1.045965674462E+00  1.058517262555E+00
  1.071219469706E+00  1.084074103343E+00  1.097082992583E+00  1.110247988494E+00
  1.123570964356E+00  1.137053815928E+00  1.150698461719E+00  1.164506843260E+00
  1.178480925379E+00  1.192622696483E+00  1.206934168841E+00  1.221417378867E+00
  1.236074387414E+00  1.250907280063E+00  1.265918167423E+00  1.281109185432E+00
  1.296482495658E+00  1.312040285605E+00  1.327784769033E+00  1.343718186261E+00
  1.359842804496E+00  1.376160918150E+00  1.392674849168E+00  1.409386947358E+00
  1.426299590726E+00  1.443415185815E+00  1.460736168045E+00  1.478265002061E+00
  1.496004182086E+00  1.513956232271E+00  1.532123707058E+00  1.550509191543E+00
  1.569115301842E+00  1.587944685464E+00  1.607000021689E+00  1.626284021949E+00
  1.645799430213E+00  1.665549023375E+00  1.685535611656E+00  1.705762038996E+00
  1.726231183464E+00  1.746945957665E+00  1.767909309157E+00  1.789124220867E+00
  1.810593711518E+00  1.832320836056E+00  1.854308686088E+00  1.876560390322E+00
  1.899079115005E+00  1.921868064385E+00  1.944930481158E+00  1.968269646932E+00
  1.991888882695E+00  2.015791549288E+00  2.039981047879E+00  2.064460820454E+00
  2.089234350299E+00  2.114305162503E+00  2.139676824453E+00  2.165352946346E+00
  2.191337181702E+00  2.217633227883E+00  2.244244826617E+00  2.271175764537E+00
  2.298429873711E+00  2.326011032196E+00  2.353923164582E+00  2.382170242557E+00
  2.410756285468E+00  2.439685360893E+00  2.468961585224E+00  2.498589124247E+00
  2.528572193738E+00  2.558915060062E+00  2.589622040783E+00  2.620697505273E+00
  2.652145875336E+00  2.683971625840E+00  2.716179285350E+00  2.748773436774E+00
  2.781758718015E+00  2.815139822632E+00  2.848921500503E+00  2.883108558509E+00
  2.917705861211E+00  2.952718331546E+00  2.988150951524E+00  3.024008762943E+00
  3.060296868098E+00  3.097020430515E+00  3.134184675681E+00  3.171794891790E+00
  3.209856430491E+00  3.248374707657E+00  3.287355204149E+00  3.326803466599E+00
  3.366725108198E+00  3.407125809496E+00  3.448011319210E+00  3.489387455041E+00
  3.531260104501E+00  3.573635225755E+00  3.616518848464E+00  3.659917074646E+00
  3.703836079541E+00  3.748282112496E+00  3.793261497846E+00  3.838780635820E+00
  3.884846003450E+00  3.931464155491E+00  3.978641725357E+00  4.026385426062E+00
  4.074702051174E+00  4.123598475788E+00  4.173081657498E+00  4.223158637388E+00
  4.273836541036E+00  4.325122579529E+00  4.377024050483E+00  4.429548339089E+00
  4.482702919158E+00  4.536495354188E+00  4.590933298438E+00  4.646024498020E+00
  4.701776791996E+00  4.758198113500E+00  4.815296490862E+00  4.873080048752E+00
  4.931557009337E+00  4.990735693449E+00  5.050624521770E+00  5.111232016032E+00
  5.172566800224E+00  5.234637601827E+00  5.297453253049E+00  5.361022692085E+00
  5.425354964390E+00  5.490459223963E+00  5.556344734651E+00  5.623020871466E+00
  5.690497121924E+00  5.758783087387E+00  5.827888484436E+00  5.897823146249E+00
  5.968597024004E+00  6.040220188292E+00  6.112702830551E+00  6.186055264518E+00
  6.260287927692E+00  6.335411382825E+00  6.411436319419E+00  6.488373555252E+00
  6.566234037915E+00  6.645028846370E+00  6.724769192526E+00  6.805466422836E+00
  6.887132019910E+00  6.969777604149E+00  7.053414935399E+00  7.138055914624E+00
  7.223712585599E+00  7.310397136626E+00  7.398121902266E+00  7.486899365093E+00
  7.576742157474E+00  7.667663063364E+00  7.759675020124E+00  7.852791120366E+00
  7.947024613810E+00  8.042388909176E+00  8.138897576086E+00  8.236564346999E+00
  8.335403119163E+00  8.435427956593E+00  8.536653092072E+00  8.639092929177E+00
  8.742762044327E+00  8.847675188859E+00  8.953847291125E+00  9.061293458619E+00
  9.170028980122E+00  9.280069327884E+00  9.391430159818E+00  9.504127321736E+00
  9.618176849597E+00  9.733594971792E+00  9.850398111454E+00  9.968602888791E+00
  1.008822612346E+01  1.020928483694E+01  1.033179625498E+01  1.045577781004E+01
  1.058124714376E+01  1.070822210949E+01  1.083672077480E+01  1.096676142410E+01
  1.109836256119E+01  1.123154291192E+01  1.136632142686E+01  1.150271728399E+01
  1.164074989140E+01  1.178043889009E+01  1.192180415677E+01  1.206486580665E+01
  1.220964419633E+01  1.235615992669E+01  1.250443384581E+01  1.265448705196E+01
  1.280634089658E+01  1.296001698734E+01  1.311553719119E+01  1.327292363748E+01
  1.343219872113E+01  1.359338510579E+01  1.375650572706E+01  1.392158379578E+01
  1.408864280133E+01  1.425770651495E+01  1.442879899313E+01  1.460194458104E+01
  1.477716791602E+01  1.495449393101E+01  1.513394785818E+01  1.531555523248E+01
  1.549934189527E+01  1.568533399801E+01  1.587355800599E+01  1.606404070206E+01
  1.625680919049E+01  1.645189090077E+01  1.664931359158E+01  1.684910535468E+01
  1.705129461894E+01  1.725591015436E+01  1.746298107622E+01  1.767253684913E+01
  1.788460729132E+01  1.809922257882E+01  1.831641324976E+01  1.853621020876E+01
  1.875864473126E+01  1.898374846804E+01  1.921155344965E+01  1.944209209105E+01
  1.967539719614E+01  1.991150196250E+01  2.015043998605E+01  2.039224526588E+01
  2.063695220907E+01  2.088459563558E+01  2.113521078321E+01  2.138883331260E+01
  2.164549931236E+01  2.190524530410E+01  2.216810824775E+01  2.243412554673E+01
  2.270333505329E+01  2.297577507393E+01  2.325148437481E+01  2.353050218731E+01
  2.381286821356E+01  2.409862263212E+01  2.438780610371E+01  2.468045977695E+01
  2.497662529428E+01  2.527634479781E+01  2.557966093538E+01  2.588661686660E+01
  2.619725626900E+01  2.651162334423E+01  2.682976282436E+01  2.715171997826E+01
  2.747754061799E+01  2.780727110541E+01  2.814095835868E+01  2.847864985898E+01
  2.882039365729E+01  2.916623838117E+01  2.951623324175E+01  2.987042804065E+01
  3.022887317714E+01  3.059161965526E+01  3.095871909113E+01  3.133022372022E+01
  3.170618640486E+01  3.208666064172E+01  3.247170056942E+01  3.286136097625E+01
  3.325569730797E+01  3.365476567566E+01  3.405862286377E+01  3.446732633814E+01
  3.488093425420E+01  3.529950546525E+01  3.572309953083E+01  3.615177672520E+01
  3.658559804590E+01  3.702462522245E+01  3.746892072512E+01  3.791854777382E+01
  3.837357034711E+01  3.883405319127E+01  3.930006182957E+01  3.977166257152E+01
  4.024892252238E+01  4.073190959265E+01  4.122069250776E+01  4.171534081786E+01
  4.221592490767E+01  4.272251600656E+01  4.323518619864E+01  4.375400843303E+01
  4.427905653422E+01
</grid-data>
</grid>
<valence-charge total-charge="8" is-unscreening-charge="yes"
 rescaled-to-z-pseudo="no">
<radfunc>
<data npts="457">
  1.144815220684E+01  1.145146164283E+01  1.146135164934E+01  1.147784169580E+01
  1.150074800280E+01  1.153083107810E+01  1.156911184673E+01  1.161286446102E+01
  1.166195482847E+01  1.171906191369E+01  1.178325062238E+01  1.185280209546E+01
  1.193655702117E+01  1.202367754269E+01  1.212598528343E+01  1.222765696765E+01
  1.234411108496E+01  1.245388094244E+01  1.257656715145E+01  1.271354655980E+01
  1.286630362512E+01  1.300093364679E+01  1.314753530237E+01  1.330700330259E+01
  1.348026230382E+01  1.366825873212E+01  1.387194986809E+01  1.403559233353E+01
  1.420899559858E+01  1.439254326409E+01  1.458660087731E+01  1.479150876119E+01
  1.500757370464E+01  1.523505939683E+01  1.547417548695E+01  1.572506515195E+01
  1.598779106044E+01  1.626231963112E+01  1.645182819571E+01  1.664644393941E+01
  1.684606214565E+01  1.705054614832E+01  1.725972424798E+01  1.747338647222E+01
  1.769128118841E+01  1.791311158117E+01  1.813853201035E+01  1.836714427038E+01
  1.859849377683E+01  1.883206571193E+01  1.906728116734E+01  1.930349332972E+01
  1.953998376234E+01  1.977595884485E+01  2.001054644217E+01  2.024279288338E+01
  2.047166034178E+01  2.069602471761E+01  2.091467413575E+01  2.112630818148E+01
  2.132953800727E+01  2.152288745355E+01  2.170479533438E+01  2.187361904617E+01
  2.202763966150E+01  2.216506867255E+01  2.228405654587E+01  2.233604293666E+01
  2.238270324437E+01  2.242379414546E+01  2.245907086060E+01  2.248828767354E+01
  2.251119848726E+01  2.252755741781E+01  2.253711942621E+01  2.253964098852E+01
  2.253488080392E+01  2.252260054069E+01  2.250256561937E+01  2.247454603238E+01
  2.243831719908E+01  2.239366085476E+01  2.234036597200E+01  2.227822971225E+01
  2.220705840526E+01  2.212666855361E+01  2.203688785917E+01  2.193755626778E+01
  2.182852702835E+01  2.170966776177E+01  2.158086153487E+01  2.144200793402E+01
  2.129302413269E+01  2.113384594674E+01  2.096442887086E+01  2.078474908905E+01
  2.059480445181E+01  2.039461541214E+01  2.018422591241E+01  1.996370421341E+01
  1.973314365723E+01  1.949266335489E+01  1.924240878983E+01  1.898255232826E+01
  1.871329362727E+01  1.843485993191E+01  1.814750625243E+01  1.785151541338E+01
  1.754719796653E+01  1.723489196015E+01  1.691496255790E+01  1.658780150120E+01
  1.625382641005E+01  1.591347991801E+01  1.556722863851E+01  1.521556196073E+01
  1.485899067471E+01  1.449804542687E+01  1.413327500878E+01  1.376524448362E+01
  1.339453315665E+01  1.302173239768E+01  1.264744332561E+01  1.227227436681E+01
  1.189683870115E+01  1.152175161114E+01  1.114762775162E+01  1.077507835894E+01
  1.040470842024E+01  1.003711382475E+01  9.672878520251E+00  9.312571698666E+00
  8.956745035732E+00  8.605930009732E+00  8.260635324628E+00  7.921344462537E+00
  7.588513389929E+00  7.262568440919E+00  6.943904399688E+00  6.632882802318E+00
  6.329830476264E+00  6.035038333235E+00  5.748760428522E+00  5.471213296809E+00
  5.202575571215E+00  4.942987888910E+00  4.692553083092E+00  4.451336657489E+00
  4.219367535969E+00  3.996639076341E+00  3.783110334076E+00  3.578707558600E+00
  3.383325901986E+00  3.196831317488E+00  3.019062623326E+00  2.849833705671E+00
  2.688935833699E+00  2.536140059182E+00  2.391199673073E+00  2.253852692149E+00
  2.123824349834E+00  2.000829566813E+00  1.884575521958E+00  1.774764724731E+00
  1.671098322802E+00  1.573278082041E+00  1.481008245800E+00  1.393997257329E+00
  1.311959343065E+00  1.234615953419E+00  1.161697059383E+00  1.092942304489E+00
  1.028102012462E+00  9.669380512878E-01  9.092245543941E-01  8.547484993561E-01
  8.033101439649E-01  7.547233188777E-01  7.088155754575E-01  6.654281869881E-01
  6.244160013575E-01  5.856471436810E-01  5.490025682894E-01  5.143754611344E-01
  4.816699557060E-01  4.507976349531E-01  4.216729469606E-01  3.942132121918E-01
  3.683385663090E-01  3.439719363254E-01  3.210390116718E-01  2.994682105736E-01
  2.791906421212E-01  2.601400644077E-01  2.422528390939E-01  2.254678827484E-01
  2.097266152999E-01  1.949729059242E-01  1.811530166760E-01  1.682155441641E-01
  1.561113595545E-01  1.447935471739E-01  1.342173419728E-01  1.243400660957E-01
  1.151210647934E-01  1.065216418981E-01  9.850499507336E-02  9.103615103394E-02
  8.408190092397E-02  7.761073602486E-02  7.159278395588E-02  6.599974551722E-02
  6.080483231399E-02  5.598270528841E-02  5.150941427618E-02  4.736233869177E-02
  4.352012943711E-02  3.996265211722E-02  3.667093163620E-02  3.362709823736E-02
  3.081433504127E-02  2.821682712661E-02  2.581971218975E-02  2.360903281051E-02
  2.157169034358E-02  1.969540044756E-02  1.796865025630E-02  1.638065719059E-02
  1.492132940228E-02  1.358122783681E-02  1.235152989513E-02  1.122399467128E-02
  1.019092973744E-02  9.245159444493E-03  8.379994703035E-03  7.589204206555E-03
  6.866987056301E-03  6.207946745282E-03  5.607066457260E-03  5.059685635385E-03
  4.561477774322E-03  4.108429389210E-03  3.696820114638E-03  3.323203886953E-03
  2.984391163597E-03  2.677432133788E-03  2.399600875701E-03  2.148380416267E-03
  1.921448650900E-03  1.716665081661E-03  1.532058333778E-03  1.365814411794E-03
  1.216265658137E-03  1.081880378325E-03  9.612530985537E-04  8.530954228688E-04
  7.562274585715E-04  6.695697799476E-04  5.921359017655E-04  5.230252353300E-04
  4.614165011494E-04  4.065615734944E-04  3.577797332928E-04  3.144523069094E-04
  2.760176694127E-04  2.419665919307E-04  2.118379136429E-04  1.852145198567E-04
  1.617196084732E-04  1.410132279564E-04  1.227890707009E-04  1.067715064293E-04
  9.271284096200E-05  8.039078638060E-05  6.960612926034E-05  6.018058427542E-05
  5.195482108911E-05  4.478665302635E-05  3.854937659493E-05  3.313025147048E-05
  2.842911109376E-05  2.435709454487E-05  2.083549085998E-05  1.779468744135E-05
  1.517321468126E-05  1.291687937568E-05  1.097797994289E-05  9.314596886887E-06
  7.889952354869E-06  6.671833031538E-06  5.632070991800E-06  4.746077495975E-06
  3.992425058969E-06  3.352473456347E-06  2.810035646184E-06  2.351079885862E-06
  1.963464607820E-06  1.636702887806E-06  1.361753593577E-06  1.130836541596E-06
  9.372692143294E-07  7.753228016293E-07  6.400955268130E-07  5.274014018412E-07
  4.336727269162E-07  3.558748083843E-07  2.914315155403E-07  2.381604323419E-07
  1.942164846908E-07  1.580430383966E-07  1.283295677621E-07  1.039750904823E-07
  8.405665178938E-08  6.780222005669E-08  5.456742793038E-08  4.381565801254E-08
  3.510103068875E-08  2.805390435691E-08  2.236854554871E-08  1.779266868472E-08
  1.411858289486E-08  1.117571686978E-08  8.824322463012E-09  6.950184093976E-09
  5.460184237805E-09  4.278595737615E-09  3.343989622476E-09  2.606662822609E-09
  2.026503883196E-09  1.571226710350E-09  1.214912738396E-09  9.368108693496E-10
  7.203522688047E-10  5.523437560736E-10  4.223092354099E-10  3.219534986638E-10
  2.447268900400E-10  1.854728727531E-10  1.401435414645E-10  1.055707246988E-10
  7.928168323468E-11  5.935372470912E-11  4.429525471020E-11  3.295226309604E-11
  2.443516794347E-11  1.806052915968E-11  1.330495756209E-11  9.768930350763E-12
  7.148475594000E-12  5.213086970950E-12  3.788555001202E-12  2.743665052382E-12
  1.979926243072E-12  1.423667909848E-12  1.019979065409E-12  7.280773673292E-13
  5.177836138275E-13  3.668461223952E-13  2.589194167439E-13  1.820414657856E-13
  1.274913628059E-13  8.893555392574E-14  6.179217800150E-14  4.275963640099E-14
  2.946833721525E-14  2.022445537053E-14  1.382215606739E-14  9.406550531408E-15
  6.374090509961E-15  4.300476288497E-15  2.888699036565E-15  1.931754572324E-15
  1.286001703128E-15  8.522098041854E-16  5.621362420690E-16  3.690629861225E-16
  2.411544408493E-16  0.000000000000E+00  0.000000000000E+00  0.000000000000E+00
  0.000000000000E+00  0.000000000000E+00  0.000000000000E+00  0.000000000000E+00
  0.000000000000E+00  0.000000000000E+00  0.000000000000E+00  0.000000000000E+00
  0.000000000000E+00  0.000000000000E+00  0.000000000000E+00  0.000000000000E+00
  0.000000000000E+00  0.000000000000E+00  0.000000000000E+00  0.000000000000E+00
  0.000000000000E+00  0.000000000000E+00  0.000000000000E+00  0.000000000000E+00
  0.000000000000E+00  0.000000000000E+00  0.000000000000E+00  0.000000000000E+00
  0.000000000000E+00  0.000000000000E+00  0.000000000000E+00  0.000000000000E+00
  0.000000000000E+00  0.000000000000E+00  0.000000000000E+00  0.000000000000E+00
  0.000000000000E+00  0.000000000000E+00  0.000000000000E+00  0.000000000000E+00
  0.000000000000E+00  0.000000000000E+00  0.000000000000E+00  0.000000000000E+00
  0.000000000000E+00  0.000000000000E+00  0.000000000000E+00  0.000000000000E+00
  0.000000000000E+00  0.000000000000E+00  0.000000000000E+00  0.000000000000E+00
  0.000000000000E+00  0.000000000000E+00  0.000000000000E+00  0.000000000000E+00
  0.000000000000E+00  0.000000000000E+00  0.000000000000E+00  0.000000000000E+00
  0.000000000000E+00  0.000000000000E+00  0.000000000000E+00  0.000000000000E+00
  0.000000000000E+00  0.000000000000E+00  0.000000000000E+00  0.000000000000E+00
  0.000000000000E+00  0.000000000000E+00  0.000000000000E+00  0.000000000000E+00
  0.000000000000E+00  0.000000000000E+00  0.000000000000E+00  0.000000000000E+00
  0.000000000000E+00  0.000000000000E+00  0.000000000000E+00  0.000000000000E+00
  0.000000000000E+00
</data>
</radfunc>
</valence-charge>
<semilocal-potentials set="scalar_relativistic">
<slps n="2" l="s" rc="1.31204028561">
<radfunc>
<data npts="256">
 -1.340760555169E+01 -1.340905932230E+01 -1.341330719774E+01 -1.342009103497E+01
 -1.342892636911E+01 -1.343956454048E+01 -1.345165984832E+01 -1.346371931399E+01
 -1.347528197173E+01 -1.348646607279E+01 -1.349655488350E+01 -1.350499137260E+01
 -1.351230203972E+01 -1.351720979564E+01 -1.352016165558E+01 -1.352070087579E+01
 -1.351901782477E+01 -1.351566293128E+01 -1.351032887635E+01 -1.350284180735E+01
 -1.349304851268E+01 -1.348346501816E+01 -1.347226582957E+01 -1.345940456156E+01
 -1.344484366890E+01 -1.342855350603E+01 -1.341051114109E+01 -1.339581875894E+01
 -1.338012492465E+01 -1.336342467948E+01 -1.334571366392E+01 -1.332698781168E+01
 -1.330724306005E+01 -1.328647507153E+01 -1.326467895571E+01 -1.324184897386E+01
 -1.321797820128E+01 -1.319305811465E+01 -1.317585661892E+01 -1.315818026745E+01
 -1.314002457414E+01 -1.312138424587E+01 -1.310225301520E+01 -1.308262343934E+01
 -1.306248665965E+01 -1.304183211524E+01 -1.302064720368E+01 -1.299891688120E+01
 -1.297662319419E+01 -1.295374473383E+01 -1.293025600560E+01 -1.290612670622E+01
 -1.288132090260E+01 -1.285579610987E+01 -1.282950227077E+01 -1.280238064510E+01
 -1.277436262781E+01 -1.274536852635E+01 -1.271530634364E+01 -1.268407063120E+01
 -1.265154149709E+01 -1.261758387371E+01 -1.258204716812E+01 -1.254476542906E+01
 -1.250555816516E+01 -1.246423193291E+01 -1.242058277671E+01 -1.239782129006E+01
 -1.237439954350E+01 -1.235029069635E+01 -1.232546801211E+01 -1.229990501980E+01
 -1.227357567908E+01 -1.224645454623E+01 -1.221851693751E+01 -1.218973908669E+01
 -1.216009829313E+01 -1.212957305692E+01 -1.209814319796E+01 -1.206578995575E+01
 -1.203249606757E+01 -1.199824582288E+01 -1.196302509267E+01 -1.192682133300E+01
 -1.188962356284E+01 -1.185142231699E+01 -1.181220957575E+01 -1.177197867329E+01
 -1.173072418782E+01 -1.168844181657E+01 -1.164512823921E+01 -1.160078097353E+01
 -1.155539822713E+01 -1.150897874885E+01 -1.146152168335E+01 -1.141302643203E+01
 -1.136349252295E+01 -1.131291949201E+01 -1.126130677692E+01 -1.120865362532E+01
 -1.115495901733E+01 -1.110022160297E+01 -1.104443965385E+01 -1.098761102854E+01
 -1.092973315047E+01 -1.087080299730E+01 -1.081081710007E+01 -1.074977155095E+01
 -1.068766201788E+01 -1.062448376477E+01 -1.056023167609E+01 -1.049490028460E+01
 -1.042848380145E+01 -1.036097614817E+01 -1.029237099008E+01 -1.022266177132E+01
 -1.015184175203E+01 -1.007990404819E+01 -1.000684167571E+01 -9.932647600094E+00
 -9.857314793921E+00 -9.780836304623E+00 -9.703205335476E+00 -9.624415343322E+00
 -9.544460156874E+00 -9.463334120065E+00 -9.381032265271E+00 -9.297550521802E+00
 -9.212885965422E+00 -9.127037115142E+00 -9.040004283852E+00 -8.951789989633E+00
 -8.862399434776E+00 -8.771841059573E+00 -8.680127177727E+00 -8.587274699872E+00
 -8.493305950962E+00 -8.398249586228E+00 -8.302141608901E+00 -8.205026490946E+00
 -8.106958395518E+00 -8.008002496737E+00 -7.908236388672E+00 -7.807751571082E+00
 -7.706654994527E+00 -7.605070642024E+00 -7.503141118603E+00 -7.401029214016E+00
 -7.298919397783E+00 -7.197019199893E+00 -7.095560425202E+00 -6.994800145163E+00
 -6.895021407440E+00 -6.796533602600E+00 -6.699672427767E+00 -6.604799390534E+00
 -6.512300802655E+00 -6.422586222788E+00 -6.336086320864E+00 -6.253250153828E+00
 -6.174541778391E+00 -6.100437323180E+00 -6.029145187070E+00 -5.958449102768E+00
 -5.888387996316E+00 -5.818965186863E+00 -5.750185375680E+00 -5.682054785202E+00
 -5.614581296139E+00 -5.547774590242E+00 -5.481646260190E+00 -5.416209838332E+00
 -5.351480686589E+00 -5.287475684502E+00 -5.224212653764E+00 -5.161709468427E+00
 -5.099982822762E+00 -5.039046665421E+00 -4.978910359176E+00 -4.919576687839E+00
 -4.861039899808E+00 -4.803284040950E+00 -4.746281874496E+00 -4.689994600330E+00
 -4.634382126823E+00 -4.579428761161E+00 -4.525126975009E+00 -4.471469098319E+00
 -4.418447490594E+00 -4.366054606675E+00 -4.314282990901E+00 -4.263125276052E+00
 -4.212574182301E+00 -4.162622516173E+00 -4.113263169520E+00 -4.064489118513E+00
 -4.016293422647E+00 -3.968669223703E+00 -3.921609744757E+00 -3.875108289813E+00
 -3.829158241050E+00 -3.783753060506E+00 -3.738886286991E+00 -3.694551536139E+00
 -3.650742499288E+00 -3.607452942595E+00 -3.564676706143E+00 -3.522407703065E+00
 -3.480639918673E+00 -3.439367409603E+00 -3.398584302966E+00 -3.358284795509E+00
 -3.318463152792E+00 -3.279113708366E+00 -3.240230862968E+00 -3.201809083723E+00
 -3.163842903356E+00 -3.126326919411E+00 -3.089255793486E+00 -3.052624250468E+00
 -3.016427077786E+00 -2.980659124670E+00 -2.945315301413E+00 -2.910390578653E+00
 -2.875879986655E+00 -2.841778614606E+00 -2.808081609914E+00 -2.774784177523E+00
 -2.741881579229E+00 -2.709369133006E+00 -2.677242212345E+00 -2.645496245593E+00
 -2.614126715307E+00 -2.583129157609E+00 -2.552499161557E+00 -2.522232368514E+00
 -2.492324471532E+00 -2.462771214741E+00 -2.433568392739E+00 -2.404711850003E+00
 -2.376197480291E+00 -2.348021226064E+00 -2.320179077904E+00 -2.292667073949E+00
 -2.265481299326E+00 -2.238617885595E+00 -2.212073010198E+00 -2.185842895917E+00
 -2.159923810334E+00 -2.134312065298E+00 -2.109004016403E+00 -2.083996062470E+00
 -2.059284645027E+00 -2.034866247809E+00 -2.010737396253E+00 -1.986894657005E+00
</data>
</radfunc>
</slps>
<slps n="2" l="p" rc="1.70576203900">
<radfunc>
<data npts="256">
 -1.870333706063E+01 -1.870462022470E+01 -1.870835807914E+01 -1.871429095638E+01
 -1.872194301888E+01 -1.873102505431E+01 -1.874113665750E+01 -1.875092401538E+01
 -1.875993116906E+01 -1.876813412343E+01 -1.877486134051E+01 -1.877964239797E+01
 -1.878253301301E+01 -1.878282182688E+01 -1.878032146249E+01 -1.877541183962E+01
 -1.876744970834E+01 -1.875813833490E+01 -1.874610267741E+01 -1.873107696790E+01
 -1.871280507136E+01 -1.869568497544E+01 -1.867620899638E+01 -1.865425953200E+01
 -1.862972125336E+01 -1.860247961108E+01 -1.857241905795E+01 -1.854795260698E+01
 -1.852178218954E+01 -1.849385394068E+01 -1.846411139887E+01 -1.843249501565E+01
 -1.839894167280E+01 -1.836338420195E+01 -1.832575089453E+01 -1.828596498400E+01
 -1.824394407426E+01 -1.819959948020E+01 -1.816869851003E+01 -1.813669207847E+01
 -1.810354812984E+01 -1.806923268937E+01 -1.803370965324E+01 -1.799694054238E+01
 -1.795888421411E+01 -1.791949652491E+01 -1.787872993673E+01 -1.783653305901E+01
 -1.779285011750E+01 -1.774762034132E+01 -1.770077725917E+01 -1.765224789680E+01
 -1.760195186921E+01 -1.754980036422E+01 -1.749569501835E+01 -1.743952669315E+01
 -1.738117416923E+01 -1.732050278779E+01 -1.725736308485E+01 -1.719158948181E+01
 -1.712299911589E+01 -1.705139091484E+01 -1.697654503788E+01 -1.689822281671E+01
 -1.681616733110E+01 -1.673010473833E+01 -1.663974643998E+01 -1.659286290774E+01
 -1.654479211070E+01 -1.649549530550E+01 -1.644493353272E+01 -1.639306776883E+01
 -1.633985908207E+01 -1.628526878921E+01 -1.622925861013E+01 -1.617179081674E+01
 -1.611282837296E+01 -1.605233506235E+01 -1.599027560025E+01 -1.592661572759E+01
 -1.586132228406E+01 -1.579436325862E+01 -1.572570781647E+01 -1.565532630168E+01
 -1.558319021608E+01 -1.550927217539E+01 -1.543354584439E+01 -1.535598585371E+01
 -1.527656770141E+01 -1.519526764291E+01 -1.511206257335E+01 -1.502692990643E+01
 -1.493984745428E+01 -1.485079331235E+01 -1.475974575346E+01 -1.466668313476E+01
 -1.457158382089E+01 -1.447442612632E+01 -1.437518827912E+01 -1.427384840827E+01
 -1.417038455573E+01 -1.406477471437E+01 -1.395699689225E+01 -1.384702920346E+01
 -1.373484998546E+01 -1.362043794273E+01 -1.350377231622E+01 -1.338483307821E+01
 -1.326360115224E+01 -1.314005865755E+01 -1.301418917798E+01 -1.288597805508E+01
 -1.275541270560E+01 -1.262248296363E+01 -1.248718144782E+01 -1.234950395448E+01
 -1.220944987735E+01 -1.206702265510E+01 -1.192223024789E+01 -1.177508564413E+01
 -1.162560739894E+01 -1.147382020563E+01 -1.131975550155E+01 -1.116345210943E+01
 -1.100495691521E+01 -1.084432558294E+01 -1.068162330687E+01 -1.051692560031E+01
 -1.035031911992E+01 -1.018190252334E+01 -1.001178735668E+01 -9.840098966971E+00
 -9.666977433231E+00 -9.492578507258E+00 -9.317074553364E+00 -9.140655473168E+00
 -8.963529598510E+00 -8.785924531886E+00 -8.608087909791E+00 -8.430288059895E+00
 -8.252814518212E+00 -8.075978367354E+00 -7.900112351848E+00 -7.725570721433E+00
 -7.552728748569E+00 -7.381981862412E+00 -7.213744338655E+00 -7.048447483333E+00
 -6.886537249501E+00 -6.728471229155E+00 -6.574714969379E+00 -6.425737571997E+00
 -6.282006550371E+00 -6.143981935636E+00 -6.012109647705E+00 -5.886814173542E+00
 -5.768490625985E+00 -5.657496289988E+00 -5.554141798177E+00 -5.458682112604E+00
 -5.371307437282E+00 -5.292135386818E+00 -5.221206420357E+00 -5.158475433019E+00
 -5.103791722518E+00 -5.056904158988E+00 -5.017456724917E+00 -4.984986510219E+00
 -4.958923505710E+00 -4.938592312984E+00 -4.923215792766E+00 -4.911920614660E+00
 -4.903744617259E+00 -4.897645847760E+00 -4.892513131986E+00 -4.887178036447E+00
 -4.880428129937E+00 -4.871021537538E+00 -4.857702906043E+00 -4.839221063361E+00
 -4.814348846289E+00 -4.781905775091E+00 -4.740784446459E+00 -4.689981573318E+00
 -4.634382126823E+00 -4.579428761161E+00 -4.525126975009E+00 -4.471469098319E+00
 -4.418447490594E+00 -4.366054606675E+00 -4.314282990901E+00 -4.263125276052E+00
 -4.212574182301E+00 -4.162622516173E+00 -4.113263169520E+00 -4.064489118513E+00
 -4.016293422647E+00 -3.968669223703E+00 -3.921609744757E+00 -3.875108289813E+00
 -3.829158241050E+00 -3.783753060506E+00 -3.738886286991E+00 -3.694551536139E+00