<?xml version="1.0" encoding="UTF-8" ?>
<psml version="1.1" energy_unit="hartree" length_unit="bohr"
 uuid="4b115190-471d-11e8-4aa3-7670fbd773ba"
 xmlns="http://esl.cecam.org/PSML/ns/1.1">
<provenance creator="ONCVPSP-3.3.0+psml-3.3.0-73 (fully-relativistic)"
 date="2018-04-23">
<annotation action="semilocal-pseudopotential-generation"
 action-cont="projectors-generation" />
<input-file name="oncvpsp-input">
<![CDATA[# atsym z nc nv iexc psfile
Kr 36 6 2 4 both
# n l f
1 0 2.0
2 0 2.0
2 1 6.0
3 0 2.0
3 1 6.0
3 2 10.0
4 0 2.0
4 1 6.0
# lmax
2
# l rc ep ncon nbas qcut
0 1.75 0.0 4 8 6.1
1 1.5 0.0 4 7 7.0
2 1.8 0.1 4 7 7.6
# lloc lpopt rc5 dvloc0
4 5 1.5 0.0
# l nproj debl
0 2 3.0
1 2 3.0
2 2 4.0
# icmod fcfact
3 7.0 1.24
# epsh1 epsh2 depsh
-12.0 12.0 0.02
# rlmax drl
6.0 0.01
 0
]]>
</input-file>
</provenance>
<pseudo-atom-spec atomic-label="Kr" atomic-number="36" z-pseudo="8"
 flavor="Hamann&apos;s oncvpsp" relativity="dirac" spin-dft="no"
 core-corrections="yes">
<annotation pseudo-energy="-18.5347004387" />
<exchange-correlation>
<annotation oncvpsp-xc-code="4" oncvpsp-xc-type="GGA -- Perdew-Burke-Ernzerhof" />
<libxc-info number-of-functionals="2">
<functional name="Perdew, Burke &amp; Ernzerhof (GGA)" type="exchange" id="101" />
<functional name="Perdew, Burke &amp; Ernzerhof (GGA)" type="correlation"
 id="130" />
</libxc-info>
</exchange-correlation>
<valence-configuration total-valence-charge="8">
<shell n="4" l="s" occupation="2" />
<shell n="4" l="p" occupation="6" />
</valence-configuration>
</pseudo-atom-spec>
<grid npts="457">
<annotation type="sampled from oncvpsp log grid"
 recipe="r(i:1..N) = r1*exp(a*(i-1)) + r=0; resampled"
 recipe-cont="r1: scale; a: step" scale="0.138888888889E-04"
 step="0.119285708653E-01" delta="0.500000000000E-02" rmax="44.0768648367" />
<grid-data>
  0.000000000000E+00  5.033159350498E-03  1.005334081446E-02  1.508161433186E-02
  2.032172843085E-02  2.549120590227E-02  3.085166315597E-02  3.602676308192E-02
  4.107815044163E-02  4.628241435380E-02  5.152768351151E-02  5.668716249522E-02
  6.236326131450E-02  6.779417908512E-02  7.282415956102E-02  7.822733879719E-02
  8.403140622808E-02  8.919575662272E-02  9.467749448230E-02  1.004961256101E-01
  1.066723545851E-01  1.118855320508E-01  1.173534823618E-01  1.230886565046E-01
  1.291041139573E-01  1.354135524264E-01  1.420313390386E-01  1.472060702126E-01
  1.525693361347E-01  1.581280058285E-01  1.638891985821E-01  1.698602930653E-01
  1.760489367809E-01  1.824630558582E-01  1.891108652054E-01  1.960008790302E-01
  2.031419217445E-01  2.105431392668E-01  2.156264928212E-01  2.208325788639E-01
  2.261643606480E-01  2.316248729715E-01  2.372172239045E-01  2.429445965584E-01
  2.488102508977E-01  2.548175255954E-01  2.609698399334E-01  2.672706957487E-01
  2.737236794269E-01  2.803324639430E-01  2.871008109524E-01  2.940325729321E-01
  3.011316953729E-01  3.084022190260E-01  3.158482822022E-01  3.234741231277E-01
  3.312840823565E-01  3.392826052409E-01  3.474742444618E-01  3.558636626201E-01
  3.644556348904E-01  3.732550517392E-01  3.822669217084E-01  3.914963742661E-01
  4.009486627264E-01  4.106291672393E-01  4.205433978531E-01  4.255899186273E-01
  4.306969976508E-01  4.358653616227E-01  4.410957459621E-01  4.463888949137E-01
  4.517455616526E-01  4.571665083925E-01  4.626525064932E-01  4.682043365711E-01
  4.738227886099E-01  4.795086620733E-01  4.852627660181E-01  4.910859192104E-01
  4.969789502409E-01  5.029426976438E-01  5.089780100155E-01  5.150857461357E-01
  5.212667750893E-01  5.275219763904E-01  5.338522401071E-01  5.402584669884E-01
  5.467415685922E-01  5.533024674153E-01  5.599420970243E-01  5.666614021886E-01
  5.734613390149E-01  5.803428750830E-01  5.873069895840E-01  5.943546734590E-01
  6.014869295406E-01  6.087047726950E-01  6.160092299674E-01  6.234013407270E-01
  6.308821568157E-01  6.384527426975E-01  6.461141756099E-01  6.538675457172E-01
  6.617139562658E-01  6.696545237410E-01  6.776903780259E-01  6.858226625622E-01
  6.940525345129E-01  7.023811649271E-01  7.108097389062E-01  7.193394557731E-01
  7.279715292424E-01  7.367071875933E-01  7.455476738444E-01  7.544942459305E-01
  7.635481768817E-01  7.727107550043E-01  7.819832840643E-01  7.913670834731E-01
  8.008634884748E-01  8.104738503365E-01  8.201995365405E-01  8.300419309790E-01
  8.400024341508E-01  8.500824633606E-01  8.602834529209E-01  8.706068543559E-01
  8.810541366082E-01  8.916267862475E-01  9.023263076825E-01  9.131542233747E-01
  9.241120740552E-01  9.352014189438E-01  9.464238359711E-01  9.577809220028E-01
  9.692742930668E-01  9.809055845836E-01  9.926764515986E-01  1.004588569018E+00
  1.016643631846E+00  1.028843355428E+00  1.041189475693E+00  1.053683749402E+00
  1.066327954394E+00  1.079123889847E+00  1.092073376525E+00  1.105178257044E+00
  1.118440396128E+00  1.131861680882E+00  1.145444021052E+00  1.159189349305E+00
  1.173099621497E+00  1.187176816955E+00  1.201422938758E+00  1.215840014023E+00
  1.230430094191E+00  1.245195255322E+00  1.260137598386E+00  1.275259249566E+00
  1.290562360561E+00  1.306049108888E+00  1.321721698194E+00  1.337582358573E+00
  1.353633346876E+00  1.369876947038E+00  1.386315470403E+00  1.402951256047E+00
  1.419786671120E+00  1.436824111173E+00  1.454066000507E+00  1.471514792514E+00
  1.489172970024E+00  1.507043045664E+00  1.525127562212E+00  1.543429092958E+00
  1.561950242074E+00  1.580693644979E+00  1.599661968719E+00  1.618857912343E+00
  1.638284207291E+00  1.657943617779E+00  1.677838941192E+00  1.697973008487E+00
  1.718348684588E+00  1.738968868803E+00  1.759836495229E+00  1.780954533172E+00
  1.802325987570E+00  1.823953899421E+00  1.845841346214E+00  1.867991442368E+00
  1.890407339677E+00  1.913092227753E+00  1.936049334486E+00  1.959281926500E+00
  1.982793309618E+00  2.006586829333E+00  2.030665871285E+00  2.055033861741E+00
  2.079694268081E+00  2.104650599298E+00  2.129906406490E+00  2.155465283368E+00
  2.181330866768E+00  2.207506837170E+00  2.233996919216E+00  2.260804882246E+00
  2.287934540833E+00  2.315389755323E+00  2.343174432387E+00  2.371292525576E+00
  2.399748035883E+00  2.428545012313E+00  2.457687552461E+00  2.487179803090E+00
  2.517025960727E+00  2.547230272256E+00  2.577797035523E+00  2.608730599950E+00
  2.640035367149E+00  2.671715791555E+00  2.703776381053E+00  2.736221697626E+00
  2.769056357998E+00  2.802285034294E+00  2.835912454705E+00  2.869943404162E+00
  2.904382725011E+00  2.939235317712E+00  2.974506141524E+00  3.010200215222E+00
  3.046322617805E+00  3.082878489219E+00  3.119873031089E+00  3.157311507462E+00
  3.195199245552E+00  3.233541636499E+00  3.272344136137E+00  3.311612265770E+00
  3.351351612959E+00  3.391567832315E+00  3.432266646303E+00  3.473453846058E+00
  3.515135292211E+00  3.557316915718E+00  3.600004718706E+00  3.643204775331E+00
  3.686923232635E+00  3.731166311426E+00  3.775940307163E+00  3.821251590849E+00
  3.867106609940E+00  3.913511889259E+00  3.960474031930E+00  4.007999720313E+00
  4.056095716957E+00  4.104768865560E+00  4.154026091947E+00  4.203874405050E+00
  4.254320897911E+00  4.305372748686E+00  4.357037221670E+00  4.409321668330E+00
  4.462233528350E+00  4.515780330690E+00  4.569969694659E+00  4.624809330995E+00
  4.680307042967E+00  4.736470727482E+00  4.793308376212E+00  4.850828076726E+00
  4.909038013647E+00  4.967946469811E+00  5.027561827449E+00  5.087892569378E+00
  5.148947280211E+00  5.210734647573E+00  5.273263463344E+00  5.336542624904E+00
  5.400581136403E+00  5.465388110040E+00  5.530972767360E+00  5.597344440569E+00
  5.664512573855E+00  5.732486724742E+00  5.801276565439E+00  5.870891884224E+00
  5.941342586835E+00  6.012638697877E+00  6.084790362251E+00  6.157807846598E+00
  6.231701540757E+00  6.306481959246E+00  6.382159742757E+00  6.458745659670E+00
  6.536250607586E+00  6.614685614878E+00  6.694061842256E+00  6.774390584363E+00
  6.855683271375E+00  6.937951470632E+00  7.021206888280E+00  7.105461370939E+00
  7.190726907390E+00  7.277015630279E+00  7.364339817842E+00  7.452711895656E+00
  7.542144438404E+00  7.632650171665E+00  7.724241973725E+00  7.816932877410E+00
  7.910736071939E+00  8.005664904802E+00  8.101732883660E+00  8.198953678263E+00
  8.297341122403E+00  8.396909215871E+00  8.497672126462E+00  8.599644191979E+00
  8.702839922283E+00  8.807274001351E+00  8.912961289367E+00  9.019916824839E+00
  9.128155826737E+00  9.237693696658E+00  9.348546021018E+00  9.460728573270E+00
  9.574257316149E+00  9.689148403943E+00  9.805418184791E+00  9.923083203008E+00
  1.004216020144E+01  1.016266612386E+01  1.028461811735E+01  1.040803353476E+01
  1.053292993717E+01  1.065932509642E+01  1.078723699758E+01  1.091668384155E+01
  1.104768404765E+01  1.118025625622E+01  1.131441933129E+01  1.145019236327E+01
  1.158759467163E+01  1.172664580769E+01  1.186736555738E+01  1.200977394407E+01
  1.215389123140E+01  1.229973792617E+01  1.244733478129E+01  1.259670279866E+01
  1.274786323225E+01  1.290083759103E+01  1.305564764213E+01  1.321231541383E+01
  1.337086319880E+01  1.353131355718E+01  1.369368931987E+01  1.385801359171E+01
  1.402430975481E+01  1.419260147187E+01  1.436291268953E+01  1.453526764180E+01
  1.470969085350E+01  1.488620714375E+01  1.506484162947E+01  1.524561972902E+01
  1.542856716577E+01  1.561370997176E+01  1.580107449142E+01  1.599068738532E+01
  1.618257563394E+01  1.637676654155E+01  1.657328774005E+01  1.677216719293E+01
  1.697343319925E+01  1.717711439764E+01  1.738323977041E+01  1.759183864765E+01
  1.780294071142E+01  1.801657599996E+01  1.823277491196E+01  1.845156821091E+01
  1.867298702944E+01  1.889706287379E+01  1.912382762827E+01  1.935331355981E+01
  1.958555332253E+01  1.982057996240E+01  2.005842692195E+01  2.029912804501E+01
  2.054271758155E+01  2.078923019253E+01  2.103870095484E+01  2.129116536630E+01
  2.154665935070E+01  2.180521926291E+01  2.206688189406E+01  2.233168447679E+01
  2.259966469051E+01  2.287086066680E+01  2.314531099480E+01  2.342305472674E+01
  2.370413138346E+01  2.398858096006E+01  2.427644393158E+01  2.456776125876E+01
  2.486257439386E+01  2.516092528659E+01  2.546285639003E+01  2.576841066671E+01
  2.607763159471E+01  2.639056317385E+01  2.670724993193E+01  2.702773693112E+01
  2.735206977429E+01  2.768029461158E+01  2.801245814692E+01  2.834860764468E+01
  2.868879093642E+01  2.903305642766E+01  2.938145310479E+01  2.973403054204E+01
  3.009083890855E+01  3.045192897545E+01  3.081735212316E+01  3.118716034863E+01
  3.156140627282E+01  3.194014314809E+01  3.232342486587E+01  3.271130596426E+01
  3.310384163583E+01  3.350108773546E+01  3.390310078829E+01  3.430993799775E+01
  3.472165725372E+01  3.513831714076E+01  3.555997694645E+01  3.598669666981E+01
  3.641853702985E+01  3.685555947421E+01  3.729782618790E+01  3.774540010215E+01
  3.819834490338E+01  3.865672504222E+01  3.912060574272E+01  3.959005301164E+01
  4.006513364778E+01  4.054591525155E+01  4.103246623457E+01  4.152485582938E+01
  4.202315409934E+01  4.252743194853E+01  4.303776113191E+01  4.355421426549E+01
  4.407686483668E+01
</grid-data>
</grid>
<valence-charge total-charge="8" is-unscreening-charge="yes"
 rescaled-to-z-pseudo="no">
<radfunc>
<data npts="457">
  1.639111952939E-02  1.643318604115E-02  1.655901314998E-02  1.676919032753E-02
  1.707816581283E-02  1.747339803067E-02  1.797872864687E-02  1.855959731767E-02
  1.921555782290E-02  1.998430806320E-02  2.085572899750E-02  2.180881241838E-02
  2.296889737537E-02  2.419012081689E-02  2.541994158760E-02  2.684875131508E-02
  2.851035216311E-02  3.010151267068E-02  3.190909200578E-02  3.396442330588E-02
  3.630382912470E-02  3.840802456343E-02  4.074565960736E-02  4.334474148488E-02
  4.623700646664E-02  4.945847140725E-02  5.305007264100E-02  5.601446962411E-02
  5.923516411904E-02  6.273646439575E-02  6.654522501916E-02  7.069113316023E-02
  7.520702718010E-02  8.012925066554E-02  8.549804524414E-02  9.135798561093E-02
  9.775846023279E-02  1.047542011361E-01  1.097784235967E-01  1.151135981058E-01
  1.207806753456E-01  1.268020868077E-01  1.332018453044E-01  1.400056506699E-01
  1.472410005809E-01  1.549373063455E-01  1.631260134095E-01  1.718407262140E-01
  1.811173368980E-01  1.909941571752E-01  2.015120525224E-01  2.127145775937E-01
  2.246481115152E-01  2.373619914149E-01  2.509086422060E-01  2.653437002472E-01
  2.807261280693E-01  2.971183168600E-01  3.145861728460E-01  3.331991830992E-01
  3.530304556131E-01  3.741567277563E-01  3.966583364040E-01  4.206191421811E-01
  4.461263993323E-01  4.732705617632E-01  5.021450147987E-01  5.172609996065E-01
  5.328457211819E-01  5.489115034336E-01  5.654707688310E-01  5.825360179429E-01
  6.001198068909E-01  6.182347225993E-01  6.368933557173E-01  6.561082710896E-01
  6.758919756507E-01  6.962568836140E-01  7.172152788301E-01  7.387792741880E-01
  7.609607679327E-01  7.837713967767E-01  8.072224856871E-01  8.313249942308E-01
  8.560894593708E-01  8.815259346096E-01  9.076439253874E-01  9.344523206518E-01
  9.619593205270E-01  9.901723600278E-01  1.019098028775E+00  1.048741986695E+00
  1.079108875691E+00  1.110202227328E+00  1.142024366554E+00  1.174576311556E+00
  1.207857669848E+00  1.241866530737E+00  1.276599354345E+00  1.312050857420E+00
  1.348213896185E+00  1.385079346560E+00  1.422635982108E+00  1.460870350130E+00
  1.499766646398E+00  1.539306589051E+00  1.579469292270E+00  1.620231140405E+00
  1.661565663298E+00  1.703443413619E+00  1.745831847108E+00  1.788695206700E+00
  1.831994411583E+00  1.875686952314E+00  1.919726793212E+00  1.964064283318E+00
  2.008646077291E+00  2.053415067679E+00  2.098310330103E+00  2.143267082907E+00
  2.188216662957E+00  2.233086519258E+00  2.277800226153E+00  2.322277517867E+00
  2.366434346200E+00  2.410182963165E+00  2.453432030349E+00  2.496086756756E+00
  2.538049066809E+00  2.579217800140E+00  2.619488944633E+00  2.658755904104E+00
  2.696909801771E+00  2.733839820484E+00  2.769433580425E+00  2.803577554702E+00
  2.836157522900E+00  2.867059062315E+00  2.896168076135E+00  2.923371357382E+00
  2.948557186911E+00  2.971615963225E+00  2.992440861242E+00  3.010928516571E+00
  3.026979731161E+00  3.040500195554E+00  3.051401222277E+00  3.059600484249E+00
  3.065022751407E+00  3.067600618155E+00  3.067275213651E+00  3.063996886451E+00
  3.057725854612E+00  3.048432812056E+00  3.036099481823E+00  3.020719106811E+00
  3.002296868781E+00  2.980850226708E+00  2.956409166152E+00  2.929016352061E+00
  2.898727178434E+00  2.865609709484E+00  2.829744508411E+00  2.791224351521E+00
  2.750153827323E+00  2.706648822209E+00  2.660835896499E+00  2.612851556806E+00
  2.562841432958E+00  2.510959369857E+00  2.457366446771E+00  2.402229938414E+00
  2.345722233807E+00  2.288019730169E+00  2.229301420491E+00  2.169746244880E+00
  2.109529801497E+00  2.048823031286E+00  1.987791800933E+00  1.926595882922E+00
  1.865388252452E+00  1.804314422314E+00  1.743511870714E+00  1.683109566644E+00
  1.623227600046E+00  1.563976922329E+00  1.505459200804E+00  1.447766925059E+00
  1.390984179400E+00  1.335187770106E+00  1.280447512248E+00  1.226826163142E+00
  1.174379668130E+00  1.123157324211E+00  1.073201981316E+00  1.024550260235E+00
  9.772327864233E-01  9.312744371711E-01  8.866946001573E-01  8.435074408502E-01
  8.017221767895E-01  7.613433567137E-01  7.223711426231E-01  6.848015930026E-01
  6.486269455446E-01  6.138358978463E-01  5.804138846829E-01  5.483433505903E-01
  5.176040166216E-01  4.881731402692E-01  4.600257676760E-01  4.331349773507E-01
  4.074721148049E-01  3.830070174938E-01  3.597082297393E-01  3.375432072301E-01
  3.164785109145E-01  2.964799901353E-01  2.775129549480E-01  2.595423376342E-01
  2.425328434903E-01  2.264490910259E-01  2.112557417601E-01  1.969176198480E-01
  1.833998218035E-01  1.706678166194E-01  1.586875366063E-01  1.474254592943E-01
  1.368486807536E-01  1.269249806997E-01  1.176228797558E-01  1.089116892480E-01
  1.007615539070E-01  9.314348785151E-02  8.602940422164E-02  7.939213883033E-02
  7.320546819251E-02  6.744412228848E-02  6.208379241187E-02  5.710113444708E-02
  5.247376791524E-02  4.818027112232E-02  4.420017273656E-02  4.051394011634E-02
  3.710296470253E-02  3.394954478211E-02  3.103686592134E-02  2.834897935795E-02
  2.587077863177E-02  2.358797472225E-02  2.148706994955E-02  1.955533088338E-02
  1.778076048978E-02  1.615206973252E-02  1.465864883027E-02  1.329053835613E-02
  1.203840035022E-02  1.089348960049E-02  9.847625231417E-03  8.893162724500E-03
  8.022966479782E-03  7.230383012387E-03  6.509214864250E-03  5.853695297529E-03
  5.258463823423E-03  4.718542608125E-03  4.229313786549E-03  3.786497704261E-03
  3.386132098786E-03  3.024552223236E-03  2.698371907850E-03  2.404465548755E-03
  2.139951007817E-03  1.902173402989E-03  1.688689764909E-03  1.497254532665E-03
  1.325805859504E-03  1.172452697843E-03  1.035462631981E-03  9.132504265753E-04
  8.043672589219E-04  7.074906034420E-04  6.214147373975E-04  5.450418376703E-04
  4.773736393970E-04  4.175036282962E-04  3.646097396221E-04  3.179475377791E-04
  2.768438517313E-04  2.406908423978E-04  2.089404792429E-04  1.810994042328E-04
  1.567241622396E-04  1.354167778234E-04  1.168206591285E-04  1.006168103796E-04
  8.652033518000E-05  7.427721348960E-05  6.366133581222E-05  5.447177874922E-05
  4.653030668711E-05  3.967908498642E-05  3.377859062954E-05  2.870570687032E-05
  2.435198900965E-05  2.062208899997E-05  1.743232715843E-05  1.470939984222E-05
  1.238921251061E-05  1.041582816393E-05  8.740521710077E-06  7.320931361062E-06
  6.120298704533E-06  5.106789626136E-06  4.252888776007E-06  3.534860775078E-06
  2.932271842627E-06  2.427565994145E-06  2.005690407076E-06  1.653764980185E-06
  1.360791519677E-06  1.117398370983E-06  9.156166792432E-07  7.486848037459E-07
  6.108777320050E-07  4.973586381258E-07  4.040500079494E-07  3.275220107910E-07
  2.648960350396E-07  2.137615232473E-07  1.721044424329E-07  1.382459080738E-07
  1.107896465944E-07  8.857713205645E-08  7.064936918986E-08  5.621441787312E-08
  4.461986462900E-08  3.532954561976E-08  2.790391391721E-08  2.198352238479E-08
  1.727516319287E-08  1.354026660347E-08  1.058521597243E-08  8.253283640983E-09
  6.417934194989E-09  4.977278077562E-09  3.849490323610E-09  2.969036767537E-09
  2.283573939371E-09  1.751409446813E-09  1.339427337280E-09  1.021398101936E-09
  7.766059435759E-10  5.887369686616E-10  4.449813359641E-10  3.353103264247E-10
  2.518959908467E-10  1.886466596395E-10  1.408363160805E-10  1.048097758657E-10
  7.774889794165E-11  5.748777596759E-11  4.236711355822E-11  3.111984474390E-11
  2.278158809872E-11  1.662077351866E-11  1.208430122954E-11  8.755422665161E-12
  6.321205595617E-12  4.547489200499E-12  3.259672011026E-12  2.328026240095E-12
  1.656512126493E-12  1.174288891894E-12  8.292957443585E-13  5.834160827753E-13
  4.088480360221E-13  2.853907092580E-13  1.984228719283E-13  1.374032345924E-13
  9.476208182707E-14  6.508538410773E-14  4.451661838054E-14  3.031998541971E-14
  2.056278738051E-14  1.388541736554E-14  9.335495184775E-15  6.248769226776E-15
  4.163966922386E-15  2.762182781416E-15  1.823922155662E-15  1.198795300320E-15
  7.842317501044E-16  5.105990131194E-16  3.308467485688E-16  2.133339521936E-16
  1.368843510914E-16  8.739416912343E-17  5.551618701033E-17  3.508637319046E-17
  2.206030640900E-17  1.379781774531E-17  7.477895118608E-18  4.636734511817E-18
  0.000000000000E+00  0.000000000000E+00  0.000000000000E+00  0.000000000000E+00
  0.000000000000E+00  0.000000000000E+00  0.000000000000E+00  0.000000000000E+00
  0.000000000000E+00  0.000000000000E+00  0.000000000000E+00  0.000000000000E+00
  0.000000000000E+00  0.000000000000E+00  0.000000000000E+00  0.000000000000E+00
  0.000000000000E+00  0.000000000000E+00  0.000000000000E+00  0.000000000000E+00
  0.000000000000E+00  0.000000000000E+00  0.000000000000E+00  0.000000000000E+00
  0.000000000000E+00  0.000000000000E+00  0.000000000000E+00  0.000000000000E+00
  0.000000000000E+00  0.000000000000E+00  0.000000000000E+00  0.000000000000E+00
  0.000000000000E+00  0.000000000000E+00  0.000000000000E+00  0.000000000000E+00
  0.000000000000E+00  0.000000000000E+00  0.000000000000E+00  0.000000000000E+00
  0.000000000000E+00  0.000000000000E+00  0.000000000000E+00  0.000000000000E+00
  0.000000000000E+00  0.000000000000E+00  0.000000000000E+00  0.000000000000E+00
  0.000000000000E+00  0.000000000000E+00  0.000000000000E+00  0.000000000000E+00
  0.000000000000E+00
</data>
</radfunc>
</valence-charge>
<pseudocore-charge matching-radius="1.05368374940"
 number-of-continuous-derivatives="4">
<annotation model-charge-form="Teter function with specified parameters" />
<radfunc>
<data npts="290">
  2.232336061393E+01  2.232231401074E+01  2.231918526284E+01  2.231396510551E+01
  2.230630465676E+01  2.229652902129E+01  2.228406815522E+01  2.226979669955E+01
  2.225374654051E+01  2.223502491241E+01  2.221391647563E+01  2.219096587943E+01
  2.216321878087E+01  2.213422810433E+01  2.210525520882E+01  2.207186767206E+01
  2.203340065435E+01  2.199691786697E+01  2.195588078063E+01  2.190973052098E+01
  2.185784222979E+01  2.181173385379E+01  2.176111384771E+01  2.170555232518E+01
  2.164458086727E+01  2.157768958501E+01  2.150432407219E+01  2.144469093089E+01
  2.138080581230E+01  2.131237926569E+01  2.123910424618E+01  2.116065537772E+01
  2.107668824202E+01  2.098683870635E+01  2.089072230518E+01  2.078793369321E+01
  2.067804619037E+01  2.056061144250E+01  2.047789738888E+01  2.039147572968E+01
  2.030119741895E+01  2.020690914115E+01  2.010845337399E+01  2.000566847708E+01
  1.989838880941E+01  1.978644487855E+01  1.966966352522E+01  1.954786814653E+01
  1.942087896195E+01  1.928851332589E+01  1.915058609128E+01  1.900691002861E+01
  1.885729630524E+01  1.870155502987E+01  1.853949586736E+01  1.837092872907E+01
  1.819566454439E+01  1.801351611866E+01  1.782429908332E+01  1.762783294359E+01
  1.742394222913E+01  1.721245775297E+01  1.699321798352E+01  1.676607053404E+01
  1.653087377370E+01  1.628749856307E+01  1.603583011650E+01  1.590685447121E+01
  1.577576999224E+01  1.564256727556E+01  1.550723821025E+01  1.536977605149E+01
  1.523017549545E+01  1.508843275593E+01  1.494454564282E+01  1.479851364219E+01
  1.465033799800E+01  1.450002179531E+01  1.434757004488E+01  1.419298976900E+01
  1.403629008847E+01  1.387748231063E+01  1.371658001803E+01  1.355359915791E+01
  1.338855813194E+01  1.322147788624E+01  1.305238200137E+01  1.288129678191E+01
  1.270825134557E+01  1.253327771135E+01  1.235641088644E+01  1.217768895166E+01
  1.199715314484E+01  1.181484794198E+01  1.163082113558E+01  1.144512390981E+01
  1.125781091198E+01  1.106894031995E+01  1.087857390476E+01  1.068677708810E+01
  1.049361899405E+01  1.029917249441E+01  1.010351424706E+01  9.906724726777E+00
  9.708888247809E+00  9.510092977512E+00  9.310430940440E+00  9.109998012161E+00
  8.908893902099E+00  8.707222124691E+00  8.505089958156E+00  8.302608390155E+00
  8.099892049633E+00  7.897059124152E+00  7.694231262017E+00  7.491533458543E+00
  7.289093925818E+00  7.087043945345E+00  6.885517703019E+00  6.684652105897E+00
  6.484586580308E+00  6.285462850893E+00  6.087424700262E+00  5.890617708994E+00
  5.695188975848E+00  5.501286818119E+00  5.309060452188E+00  5.118659654447E+00
  4.930234402917E+00  4.743934499983E+00  4.559909176865E+00  4.378306680587E+00
  4.199273844358E+00  4.022955642501E+00  3.849494731202E+00  3.679030976601E+00
  3.511700971901E+00  3.347637545392E+00  3.186969261525E+00  3.029819917325E+00
  2.876308036691E+00  2.726546365322E+00  2.580641369195E+00  2.438692739746E+00
  2.300792909056E+00  2.167026578546E+00  2.037470264808E+00  1.912191866351E+00
  1.791250255148E+00  1.674694896931E+00  1.562565504254E+00  1.454891726332E+00
  1.351692879660E+00  1.252977723315E+00  1.158744282757E+00  1.068979725743E+00
  9.836602937752E-01  9.027512922097E-01  8.262071418122E-01  7.539714941660E-01
  6.859774128706E-01  6.221476219608E-01  5.623948224030E-01  5.066220768969E-01
  4.547232625345E-01  4.065835901410E-01  3.620801883576E-01  3.210827497287E-01
  2.834542352344E-01  2.490516328759E-01  2.177267650882E-01  1.893271389323E-01
  1.636968322288E-01  1.406774080405E-01  1.201088492259E-01  1.018305041701E-01
  8.568203427982E-02  7.150435342283E-02  5.914054921183E-02  4.843677589491E-02
  3.924310863702E-02  3.141434916642E-02  2.481077312935E-02  1.929881005016E-02
  1.475164753610E-02  1.104975229310E-02  8.081301626033E-03  5.742520372435E-03
  3.937919645235E-03  2.580435317198E-03  1.591465839084E-03  9.008107135193E-04
  4.465127100387E-04  1.746086630014E-04  3.879539897718E-05  1.894783605849E-08
  2.599665527684E-05  9.068308790498E-05  1.736916615201E-04  2.596846894642E-04
  3.377450070812E-04  4.007424546173E-04  4.447082776817E-04  4.682299259674E-04
  4.718778035937E-04  4.576742673093E-04  4.286136141474E-04  3.882399931465E-04
  3.402881736759E-04  2.883899735271E-04  2.358469694075E-04  1.854679625309E-04
  1.394676365334E-04  9.942100625198E-05  6.626669050346E-05  4.035081653325E-05
  2.150253091333E-05  9.131686458871E-06  2.339311804993E-06  3.194178234531E-08
  1.031761567145E-06  4.175742041049E-06  8.398443626309E-06  1.279484987228E-05
  1.666135714250E-05  1.951478404534E-05  2.109086626031E-05  2.132507042626E-05
  2.031961218391E-05  1.830123839538E-05  1.557459999344E-05  1.247589902558E-05
  9.330972519356E-06  6.421138363923E-06  3.959061773931E-06  2.075710978505E-06
  8.182728288848E-07  1.578070676084E-07  4.533808298285E-09  2.280515225804E-07
  6.795206917483E-07  1.212932924872E-06  1.702990240618E-06  2.057782201222E-06
  2.225278751488E-06  2.193544870699E-06  1.985415530202E-06  1.649041547451E-06
  1.246147582709E-06  8.399859267379E-07  4.848181244223E-07  2.183472586845E-07
  5.793033239929E-08  7.222887384786E-10  0.000000000000E+00  0.000000000000E+00
  0.000000000000E+00  0.000000000000E+00  0.000000000000E+00  0.000000000000E+00
  0.000000000000E+00  0.000000000000E+00  0.000000000000E+00  0.000000000000E+00
  0.000000000000E+00  0.000000000000E+00  0.000000000000E+00  0.000000000000E+00
  0.000000000000E+00  0.000000000000E+00  0.000000000000E+00  0.000000000000E+00
  0.000000000000E+00  0.000000000000E+00  0.000000000000E+00  0.000000000000E+00
  0.000000000000E+00  0.000000000000E+00  0.000000000000E+00  0.000000000000E+00
  0.000000000000E+00  0.000000000000E+00  0.000000000000E+00  0.000000000000E+00
  0.000000000000E+00  0.000000000000E+00  0.000000000000E+00  0.000000000000E+00
  0.000000000000E+00  0.000000000000E+00
</data>
</radfunc>
</pseudocore-charge>
<semilocal-potentials set="scalar_relativistic">
<slps n="4" l="s" rc="1.75983649523">
<radfunc>
<data npts="290">
  4.941961844514E+01  4.939109361124E+01  4.930597459779E+01  4.916447041823E+01
  4.895796907886E+01  4.869642044802E+01  4.836619186663E+01  4.799226890824E+01
  4.757711434145E+01  4.709989722872E+01  4.657071854373E+01  4.600576037132E+01
  4.533677925542E+01  4.465371693088E+01  4.398675569208E+01  4.323691472858E+01
  4.239691229482E+01  4.162292362144E+01  4.077755774005E+01  3.985733328936E+01
  3.885928202035E+01  3.800323722858E+01  3.709510551055E+01  3.613449546045E+01
  3.512147270320E+01  3.405661130235E+01  3.294103922007E+01  3.207209224209E+01
  3.117652675733E+01  3.025549378136E+01  2.931034402881E+01  2.834262576149E+01
  2.735407953786E+01  2.634662975893E+01  2.532237298982E+01  2.428356312844E+01
  2.323259358934E+01  2.217197676752E+01  2.146082420570E+01  2.074733336050E+01
  2.003230644174E+01  1.931655279570E+01  1.860088531916E+01  1.788611685162E+01
  1.717305658154E+01  1.646250650252E+01  1.575525795435E+01  1.505208828291E+01
  1.435375765083E+01  1.366100602851E+01  1.297455039267E+01  1.229508215588E+01
  1.162326484773E+01  1.095973206416E+01  1.030508569784E+01  9.659894458605E+00
  9.024692688980E+00  8.399979476097E+00  7.786218057568E+00  7.183835515404E+00
  6.593222748841E+00  6.014734713942E+00  5.448690915226E+00  4.895376132181E+00
  4.355041361606E+00  3.827904954968E+00  3.314153928707E+00  3.062348164318E+00
  2.813945424344E+00  2.568960943802E+00  2.327408294533E+00  2.089299439944E+00
  1.854644790749E+00  1.623453261552E+00  1.395732328043E+00  1.171488084634E+00
  9.507253023568E-01  7.334474868163E-01  5.196569360256E-01  3.093547979368E-01
  1.025411274964E-01 -1.007850569645E-01 -3.006257181763E-01 -4.969837453645E-01
 -6.898629008705E-01 -8.792677680903E-01 -1.065203700908E+00 -1.247676774776E+00
 -1.426693739569E+00 -1.602261974397E+00 -1.774389444459E+00 -1.943084660120E+00
 -2.108356638295E+00 -2.270214866270E+00 -2.428669268077E+00 -2.583730173493E+00
 -2.735408289777E+00 -2.883714676198E+00 -3.028660721433E+00 -3.170258123875E+00
 -3.308518874892E+00 -3.443455245030E+00 -3.575079773224E+00 -3.703405258852E+00
 -3.828444756903E+00 -3.950211575640E+00 -4.068719277376E+00 -4.183981681631E+00
 -4.296012870838E+00 -4.404827198381E+00 -4.510439298661E+00 -4.612864099028E+00
 -4.712116833222E+00 -4.808213056037E+00 -4.901168658789E+00 -4.990999885181E+00
 -5.077723347090E+00 -5.161356039735E+00 -5.241915355652E+00 -5.319419096854E+00
 -5.393885484455E+00 -5.465333165062E+00 -5.533781213087E+00 -5.599249128181E+00
 -5.661756826881E+00 -5.721324627528E+00 -5.777973227528E+00 -5.831723671953E+00
 -5.882597312514E+00 -5.930615755931E+00 -5.975800800770E+00 -6.018174361887E+00
 -6.057758381683E+00 -6.094574727566E+00 -6.128645075125E+00 -6.159990776811E+00
 -6.188632716147E+00 -6.214591147892E+00 -6.237885524941E+00 -6.258534313268E+00
 -6.276554796749E+00 -6.291962874358E+00 -6.304772852904E+00 -6.314997239311E+00
 -6.322646537224E+00 -6.327729053703E+00 -6.330250722666E+00 -6.330214952787E+00
 -6.327622508538E+00 -6.322471434104E+00 -6.314757030883E+00 -6.304471900242E+00
 -6.291606064077E+00 -6.276147176455E+00 -6.258080840249E+00 -6.237391043062E+00
 -6.214060726831E+00 -6.188072505363E+00 -6.159409543364E+00 -6.128056609459E+00