<?xml version="1.0" encoding="UTF-8" ?>
<psml version="1.1" energy_unit="hartree" length_unit="bohr"
 uuid="401fa900-4707-11e8-6ff2-7381ffef2f7a"
 xmlns="http://esl.cecam.org/PSML/ns/1.1">
<provenance creator="ONCVPSP-3.3.0+psml-3.3.0-73 (fully-relativistic)"
 date="2018-04-23">
<annotation action="semilocal-pseudopotential-generation"
 action-cont="projectors-generation" />
<input-file name="oncvpsp-input">
<![CDATA[# atsym z nc nv iexc psfile
B 5 1 2 4 both
# n l f
1 0 2.0
2 0 2.0
2 1 1.0
# lmax
1
# l rc ep ncon nbas qcut
0 1.2 0.0 4 8 7.6
1 1.2 0.0 4 8 8.8
# lloc lpopt rc5 dvloc0
4 5 1.2 0.0
# l nproj debl
0 2 8.5
1 2 1.5
# icmod fcfact
3 2.9 1.45
# epsh1 epsh2 depsh
-12.0 12.0 0.02
# rlmax drl
6.0 0.01
 0
]]>
</input-file>
</provenance>
<pseudo-atom-spec atomic-label="B" atomic-number="5" z-pseudo="3"
 flavor="Hamann&apos;s oncvpsp" relativity="dirac" spin-dft="no"
 core-corrections="yes">
<annotation pseudo-energy="-2.59933966858" />
<exchange-correlation>
<annotation oncvpsp-xc-code="4" oncvpsp-xc-type="GGA -- Perdew-Burke-Ernzerhof" />
<libxc-info number-of-functionals="2">
<functional name="Perdew, Burke &amp; Ernzerhof (GGA)" type="exchange" id="101" />
<functional name="Perdew, Burke &amp; Ernzerhof (GGA)" type="correlation"
 id="130" />
</libxc-info>
</exchange-correlation>
<valence-configuration total-valence-charge="3">
<shell n="2" l="s" occupation="2" />
<shell n="2" l="p" occupation="1" />
</valence-configuration>
</pseudo-atom-spec>
<grid npts="457">
<annotation type="sampled from oncvpsp log grid"
 recipe="r(i:1..N) = r1*exp(a*(i-1)) + r=0; resampled"
 recipe-cont="r1: scale; a: step" scale="0.100000000000E-03"
 step="0.119285708653E-01" delta="0.500000000000E-02" rmax="44.3362164955" />
<grid-data>
  0.000000000000E+00  5.002741943459E-03  1.011249544414E-02  1.517035570920E-02
  2.019891604953E-02  2.533715228865E-02  3.066521414240E-02  3.580903885730E-02
  4.082989865078E-02  4.600271110220E-02  5.121628098796E-02  5.634457916426E-02
  6.198637503461E-02  6.738447158402E-02  7.325266251047E-02  7.868763446835E-02
  8.452585347789E-02  8.972059130699E-02  9.523458413327E-02  1.010874525337E-01
  1.073000229144E-01  1.125438751168E-01  1.180439992675E-01  1.238129196156E-01
  1.298637724820E-01  1.362103361718E-01  1.428670623488E-01  1.480722420386E-01
  1.534670658293E-01  1.590584431627E-01  1.648535352170E-01  1.708597640790E-01
  1.770848222496E-01  1.835366824963E-01  1.902236080644E-01  1.971541632598E-01
  2.043372244181E-01  2.117819912728E-01  2.168952556701E-01  2.221319747230E-01
  2.274951291207E-01  2.329877715182E-01  2.386130282737E-01  2.443741012284E-01
  2.502742695284E-01  2.563168914919E-01  2.625054065201E-01  2.688433370551E-01
  2.753342905850E-01  2.819819616969E-01  2.887901341801E-01  2.957626831797E-01
  3.029035774024E-01  3.102168813752E-01  3.177067577591E-01  3.253774697185E-01
  3.332333833474E-01  3.412789701549E-01  3.495188096103E-01  3.579575917496E-01
  3.666001198448E-01  3.754513131383E-01  3.845162096427E-01  3.937999690083E-01
  4.033078754601E-01  4.130453408052E-01  4.230179075136E-01  4.280941224037E-01
  4.332312518726E-01  4.384300268950E-01  4.436911872178E-01  4.490154814644E-01
  4.544036672420E-01  4.598565112489E-01  4.653747893839E-01  4.709592868565E-01
  4.766107982987E-01  4.823301278783E-01  4.881180894129E-01  4.939755064858E-01
  4.999032125636E-01  5.059020511144E-01  5.119728757278E-01  5.181165502365E-01
  5.243339488394E-01  5.306259562254E-01  5.369934677001E-01  5.434373893125E-01
  5.499586379843E-01  5.565581416401E-01  5.632368393398E-01  5.699956814119E-01
  5.768356295888E-01  5.837576571439E-01  5.907627490296E-01  5.978519020179E-01
  6.050261248422E-01  6.122864383403E-01  6.196338756004E-01  6.270694821076E-01
  6.345943158928E-01  6.422094476836E-01  6.499159610558E-01  6.577149525884E-01
  6.656075320195E-01  6.735948224037E-01  6.816779602726E-01  6.898580957958E-01
  6.981363929454E-01  7.065140296607E-01  7.149921980167E-01  7.235721043929E-01
  7.322549696456E-01  7.410420292813E-01  7.499345336327E-01  7.589337480363E-01
  7.680409530127E-01  7.772574444489E-01  7.865845337823E-01  7.960235481877E-01
  8.055758307659E-01  8.152427407351E-01  8.250256536239E-01  8.349259614674E-01
  8.449450730050E-01  8.550844138811E-01  8.653454268477E-01  8.757295719698E-01
  8.862383268335E-01  8.968731867555E-01  9.076356649965E-01  9.185272929765E-01
  9.295496204922E-01  9.407042159381E-01  9.519926665294E-01  9.634165785277E-01
  9.749775774701E-01  9.866773083997E-01  9.985174361005E-01  1.010499645334E+00
  1.022625641078E+00  1.034897148771E+00  1.047315914556E+00  1.059883705531E+00
  1.072602309997E+00  1.085473537717E+00  1.098499220169E+00  1.111681210812E+00
  1.125021385341E+00  1.138521641965E+00  1.152183901669E+00  1.166010108489E+00
  1.180002229791E+00  1.194162256548E+00  1.208492203627E+00  1.222994110070E+00
  1.237670039391E+00  1.252522079864E+00  1.267552344822E+00  1.282762972960E+00
  1.298156128636E+00  1.313734002179E+00  1.329498810206E+00  1.345452795928E+00
  1.361598229479E+00  1.377937408233E+00  1.394472657132E+00  1.411206329017E+00
  1.428140804965E+00  1.445278494625E+00  1.462621836561E+00  1.480173298599E+00
  1.497935378182E+00  1.515910602721E+00  1.534101529953E+00  1.552510748313E+00
  1.571140877292E+00  1.589994567820E+00  1.609074502634E+00  1.628383396665E+00
  1.647923997425E+00  1.667699085395E+00  1.687711474419E+00  1.707964012112E+00
  1.728459580258E+00  1.749201095221E+00  1.770191508363E+00  1.791433806464E+00
  1.812931012141E+00  1.834686184287E+00  1.856702418498E+00  1.878982847520E+00
  1.901530641691E+00  1.924349009391E+00  1.947441197504E+00  1.970810491874E+00
  1.994460217776E+00  2.018393740389E+00  2.042614465274E+00  2.067125838857E+00
  2.091931348924E+00  2.117034525111E+00  2.142438939412E+00  2.168148206685E+00
  2.194165985165E+00  2.220495976987E+00  2.247141928711E+00  2.274107631856E+00
  2.301396923438E+00  2.329013686519E+00  2.356961850757E+00  2.385245392967E+00
  2.413868337682E+00  2.442834757734E+00  2.472148774827E+00  2.501814560125E+00
  2.531836334847E+00  2.562218370865E+00  2.592964991315E+00  2.624080571211E+00
  2.655569538065E+00  2.687436372522E+00  2.719685608992E+00  2.752321836300E+00
  2.785349698336E+00  2.818773894716E+00  2.852599181453E+00  2.886830371630E+00
  2.921472336090E+00  2.956530004123E+00  2.992008364172E+00  3.027912464542E+00
  3.064247414117E+00  3.101018383086E+00  3.138230603683E+00  3.175889370927E+00
  3.214000043378E+00  3.252568043899E+00  3.291598860426E+00  3.331098046751E+00
  3.371071223312E+00  3.411524077992E+00  3.452462366928E+00  3.493891915331E+00
  3.535818618315E+00  3.578248441734E+00  3.621187423035E+00  3.664641672112E+00
  3.708617372177E+00  3.753120780643E+00  3.798158230011E+00  3.843736128771E+00
  3.889860962316E+00  3.936539293864E+00  3.983777765390E+00  4.031583098575E+00
  4.079962095758E+00  4.128921640907E+00  4.178468700598E+00  4.228610325005E+00
  4.279353648905E+00  4.330705892692E+00  4.382674363404E+00  4.435266455765E+00
  4.488489653234E+00  4.542351529073E+00  4.596859747422E+00  4.652022064391E+00
  4.707846329164E+00  4.764340485114E+00  4.821512570935E+00  4.879370721786E+00
  4.937923170448E+00  4.997178248493E+00  5.057144387475E+00  5.117830120125E+00
  5.179244081566E+00  5.241395010545E+00  5.304291750672E+00  5.367943251680E+00
  5.432358570700E+00  5.497546873548E+00  5.563517436031E+00  5.630279645263E+00
  5.697843001006E+00  5.766217117018E+00  5.835411722423E+00  5.905436663092E+00
  5.976301903049E+00  6.048017525885E+00  6.120593736196E+00  6.194040861030E+00
  6.268369351363E+00  6.343589783579E+00  6.419712860982E+00  6.496749415314E+00
  6.574710408298E+00  6.653606933197E+00  6.733450216396E+00  6.814251618992E+00
  6.896022638420E+00  6.978774910081E+00  7.062520209002E+00  7.147270451510E+00
  7.233037696928E+00  7.319834149291E+00  7.407672159083E+00  7.496564224992E+00
  7.586522995692E+00  7.677561271640E+00  7.769692006900E+00  7.862928310983E+00
  7.957283450714E+00  8.052770852123E+00  8.149404102349E+00  8.247196951577E+00
  8.346163314996E+00  8.446317274776E+00  8.547673082073E+00  8.650245159058E+00
  8.754048100966E+00  8.859096678178E+00  8.965405838316E+00  9.072990708376E+00
  9.181866596876E+00  9.292048996039E+00  9.403553583991E+00  9.516396226999E+00
  9.630592981723E+00  9.746160097504E+00  9.863114018674E+00  9.981471386898E+00
  1.010124904354E+01  1.022246403206E+01  1.034513360045E+01  1.046927520365E+01
  1.059490650610E+01  1.072204538417E+01  1.085070992878E+01  1.098091844793E+01
  1.111268946930E+01  1.124604174293E+01  1.138099424385E+01  1.151756617477E+01
  1.165577696887E+01  1.179564629250E+01  1.193719404801E+01  1.208044037658E+01
  1.222540566110E+01  1.237211052904E+01  1.252057585538E+01  1.267082276565E+01
  1.282287263884E+01  1.297674711050E+01  1.313246807583E+01  1.329005769274E+01
  1.344953838505E+01  1.361093284567E+01  1.377426403982E+01  1.393955520830E+01
  1.410682987080E+01  1.427611182925E+01  1.444742517120E+01  1.462079427325E+01
  1.479624380453E+01  1.497379873019E+01  1.515348431495E+01  1.533532612673E+01
  1.551935004025E+01  1.570558224073E+01  1.589404922762E+01  1.608477781835E+01
  1.627779515217E+01  1.647312869400E+01  1.667080623833E+01  1.687085591319E+01
  1.707330618414E+01  1.727818585835E+01  1.748552408865E+01  1.769535037772E+01
  1.790769458225E+01  1.812258691724E+01  1.834005796024E+01  1.856013865577E+01
  1.878286031964E+01  1.900825464347E+01  1.923635369919E+01  1.946718994358E+01
  1.970079622291E+01  1.993720577758E+01  2.017645224691E+01  2.041856967388E+01
  2.066359250996E+01  2.091155562008E+01  2.116249428752E+01  2.141644421897E+01
  2.167344154960E+01  2.193352284820E+01  2.219672512237E+01  2.246308582384E+01
  2.273264285373E+01  2.300543456797E+01  2.328149978279E+01  2.356087778018E+01
  2.384360831355E+01  2.412973161331E+01  2.441928839267E+01  2.471231985338E+01
  2.500886769162E+01  2.530897410392E+01  2.561268179317E+01  2.592003397469E+01
  2.623107438238E+01  2.654584727497E+01  2.686439744227E+01  2.718677021158E+01
  2.751301145412E+01  2.784316759156E+01  2.817728560266E+01  2.851541302990E+01
  2.885759798625E+01  2.920388916209E+01  2.955433583203E+01  2.990898786202E+01
  3.026789571636E+01  3.063111046496E+01  3.099868379054E+01  3.137066799603E+01
  3.174711601198E+01  3.212808140412E+01  3.251361838097E+01  3.290378180154E+01
  3.329862718316E+01  3.369821070936E+01  3.410258923787E+01  3.451182030873E+01
  3.492596215243E+01  3.534507369826E+01  3.576921458264E+01  3.619844515763E+01
  3.663282649952E+01  3.707242041752E+01  3.751728946253E+01  3.796749693608E+01
  3.842310689931E+01  3.888418418210E+01  3.935079439229E+01  3.982300392499E+01
  4.030087997209E+01  4.078449053176E+01  4.127390441814E+01  4.176919127116E+01
  4.227042156641E+01  4.277766662521E+01  4.329099862471E+01  4.381049060821E+01
  4.433621649551E+01
</grid-data>
</grid>
<valence-charge total-charge="3" is-unscreening-charge="yes"
 rescaled-to-z-pseudo="no">
<radfunc>
<data npts="457">
  1.665416028949E-01  1.666428154227E-01  1.669550834704E-01  1.674718543254E-01
  1.681900881518E-01  1.691340387786E-01  1.703363499693E-01  1.717120792517E-01
  1.732576369578E-01  1.750582587698E-01  1.770856157650E-01  1.792865032877E-01
  1.819426278689E-01  1.847122589912E-01  1.879736252787E-01  1.912243834348E-01
  1.949597912040E-01  1.984927062645E-01  2.024552297809E-01  2.068970265970E-01
  2.118728067772E-01  2.162780814754E-01  2.210967936821E-01  2.263646813663E-01
  2.321199249131E-01  2.384031714295E-01  2.452575215870E-01  2.508003512532E-01
  2.567100098758E-01  2.630072153957E-01  2.697133063625E-01  2.768501675374E-01
  2.844401364410E-01  2.925058885180E-01  3.010702985355E-01  3.101562758294E-01
  3.197865710988E-01  3.299835526306E-01  3.371071315439E-01  3.444984698397E-01
  3.521635649606E-01  3.601081446700E-01  3.683376190816E-01  3.768570297787E-01
  3.856709961539E-01  3.947836591625E-01  4.041986227424E-01  4.139188932221E-01
  4.239468171099E-01  4.342840177307E-01  4.449313312493E-01  4.558887426916E-01
  4.671553226378E-01  4.787291653127E-01  4.906073288410E-01  5.027857784439E-01
  5.152593333469E-01  5.280216181152E-01  5.410650190490E-01  5.543806461246E-01
  5.679583007800E-01  5.817864495830E-01  5.958522035076E-01  6.101413021663E-01
  6.246381019141E-01  6.393255662684E-01  6.541852565925E-01  6.616735382586E-01
  6.691973205034E-01  6.767538981269E-01  6.843404750216E-01  6.919541631222E-01
  6.995919811372E-01  7.072508530373E-01  7.149276062722E-01  7.226189696935E-01
  7.303215711612E-01  7.380319348165E-01  7.457464780077E-01  7.534615078608E-01
  7.611732174953E-01  7.688776818892E-01  7.765708534106E-01  7.842485570401E-01
  7.919064853198E-01  7.995401930762E-01  8.071450919798E-01  8.147164450119E-01
  8.222493609299E-01  8.297387888322E-01  8.371795129401E-01  8.445661477267E-01
  8.518931335396E-01  8.591547328725E-01  8.663450274531E-01  8.734579163246E-01
  8.804871151005E-01  8.874261565765E-01  8.942683928812E-01  9.010069993384E-01
  9.076349802031E-01  9.141451764135E-01  9.205302754757E-01  9.267828235652E-01
  9.328952398893E-01  9.388598333044E-01  9.446688211292E-01  9.503143500287E-01
  9.557885187743E-01  9.610834026105E-01  9.661910788750E-01  9.711036534382E-01
  9.758132874407E-01  9.803122237270E-01  9.845928122935E-01  9.886475340024E-01
  9.924690217522E-01  9.960500782587E-01  9.993836895772E-01  1.002463033506E+00
  1.005281482044E+00  1.007832597148E+00  1.010110119141E+00  1.012107947282E+00
  1.013820112192E+00  1.015240740076E+00  1.016364008978E+00  1.017184097623E+00
  1.017695127776E+00  1.017891101466E+00  1.017765834852E+00  1.017312890942E+00
  1.016525513862E+00  1.015396567785E+00  1.013918484041E+00  1.012083220292E+00
  1.009882235900E+00  1.007306487810E+00  1.004346451265E+00  1.000992169561E+00
  9.972333367008E-01  9.930594162824E-01  9.884597991678E-01  9.834240014594E-01
  9.779419030400E-01  9.720040254139E-01  9.656018458612E-01  9.587281430146E-01
  9.513773669553E-01  9.435460248856E-01  9.352330714679E-01  9.264402911447E-01
  9.171726583001E-01  9.074386601356E-01  8.972505667326E-01  8.866243760692E-01
  8.755785978626E-01  8.641323366390E-01  8.523049066253E-01  8.401161410936E-01
  8.275861814260E-01  8.147354574305E-01  8.015846367107E-01  7.881545766152E-01
  7.744662760414E-01  7.605408272120E-01  7.463993676014E-01  7.320630321831E-01
  7.175529061761E-01  7.028899784669E-01  6.880950958821E-01  6.731889184815E-01
  6.581918760344E-01  6.431241258344E-01  6.280055119956E-01  6.128555263672E-01
  5.976932711864E-01  5.825374235820E-01  5.674062020277E-01  5.523173348304E-01
  5.372880307281E-01  5.223349516598E-01  5.074741877560E-01  4.927212345896E-01
  4.780909727121E-01  4.635976494907E-01  4.492548632527E-01  4.350755497294E-01
  4.210719707847E-01  4.072557054053E-01  3.936376429153E-01  3.802279783769E-01
  3.670362101243E-01  3.540711393763E-01  3.413408718609E-01  3.288528213852E-01
  3.166137152719E-01  3.046296015845E-01  2.929058580549E-01  2.814472026249E-01
  2.702577055105E-01  2.593408026935E-01  2.486993107437E-01  2.383354428755E-01
  2.282508261367E-01  2.184465196326E-01  2.089230336844E-01  1.996803498236E-01
  1.907179415241E-01  1.820347955754E-01  1.736294340021E-01  1.654999364376E-01
  1.576439628613E-01  1.500587766112E-01  1.427412675900E-01  1.356879755771E-01
  1.288951135860E-01  1.223585911611E-01  1.160740375745E-01  1.100368248387E-01
  1.042420904748E-01  9.868475997575E-02  9.335956890744E-02  8.826108459328E-02
  8.338372733249E-02  7.872179110414E-02  7.426946371226E-02  7.002084633341E-02
  6.596997242221E-02  6.211082594616E-02  5.843735891344E-02  5.494350816502E-02
  5.162321140428E-02  4.847042244086E-02  4.547912562800E-02  4.264334947649E-02
  3.995717943124E-02  3.741476980011E-02  3.501035482830E-02  3.273825891496E-02
  3.059290597272E-02  2.856882793426E-02  2.666067241389E-02  2.486320953588E-02
  2.317133794466E-02  2.158009001560E-02  2.008463628838E-02  1.868028914794E-02
  1.736250578084E-02  1.612689043759E-02  1.496919603348E-02  1.388532512246E-02
  1.287133028042E-02  1.192341393506E-02  1.103792768076E-02  1.021137111728E-02
  9.440390251293E-03  8.721775499765E-03  8.052459333677E-03  7.429513600167E-03
  6.850146559682E-03  6.311699674475E-03  5.811644182607E-03  5.347577490523E-03
  4.917219415635E-03  4.518408308540E-03  4.149097082640E-03  3.807349177142E-03
  3.491334477437E-03  3.199325214995E-03  2.929691866969E-03  2.680899073857E-03
  2.451501591711E-03  2.240140293635E-03  2.045538233602E-03  1.866496783973E-03
  1.701891856612E-03  1.550670215981E-03  1.411845891292E-03  1.284496693512E-03
  1.167760841857E-03  1.060833703354E-03  9.629646480655E-04  8.734540217082E-04
  7.916502365939E-04  7.169469811171E-04  6.487805473925E-04  5.866272760887E-04
  5.300011170249E-04  4.784513036820E-04  4.315601394230E-04  3.889408929145E-04
  3.502357999914E-04  3.151141690004E-04  2.832705864906E-04  2.544232199931E-04
  2.283122145323E-04  2.046981794466E-04  1.833607620523E-04  1.640973046680E-04
  1.467215815142E-04  1.310626120248E-04  1.169635471369E-04  1.042806251745E-04
  9.288219399790E-05  8.264779615885E-05  7.346731387712E-05  6.524017073607E-05
  5.787458708438E-05  5.128688622316E-05  4.540084855507E-05  4.014711097122E-05
  3.546260885384E-05  3.129005817516E-05  2.757747527714E-05  2.427773202026E-05
  2.134814409296E-05  1.875009037603E-05  1.644866135708E-05  1.441233469013E-05
  1.261267609222E-05  1.102406386461E-05  9.623435418276E-06  8.390054273233E-06
  7.305296088246E-06  6.352452360870E-06  5.516550518592E-06  4.784189199024E-06
  4.143387591144E-06  3.583447780319E-06  3.094829107250E-06  2.669033615187E-06
  2.298501720674E-06  1.976517300924E-06  1.697121445630E-06  1.455034172775E-06
  1.245583456828E-06  1.064640963771E-06  9.085639307710E-07  7.741426690908E-07
  6.585532071329E-07  5.593146265030E-07  4.742506776706E-07  4.014552933951E-07
  3.392616476391E-07  2.862144353154E-07  2.410450740230E-07  2.026495530063E-07
  1.700686770225E-07  1.424704737076E-07  1.191345524857E-07  9.943822114802E-08
  8.284418300752E-08  6.888965310787E-08  5.717674637737E-08  4.736400395831E-08
  3.915893626208E-08  3.231147266765E-08  2.660821825186E-08  2.186742757165E-08
  1.793461436307E-08  1.467872413120E-08  1.198880402687E-08  9.771111186707E-09
  7.946606896370E-09  6.448789564322E-09  5.221824605877E-09  4.218933971125E-09
  3.401012242559E-09  2.735440012370E-09  2.195068657685E-09  1.757353695062E-09
  1.403616641837E-09  1.118417768566E-09  8.890243190173E-10  7.049607257781E-10
  5.576290825599E-10  4.399896694233E-10  3.462926835145E-10  2.718535232244E-10
  2.128650243375E-10  1.662409677901E-10  1.294859839256E-10  1.005876802728E-10
  7.792743040264E-11  6.020679082406E-11  4.638697065310E-11  3.563917349601E-11
  2.730397034854E-11  2.085815323897E-11  1.588776801981E-11  1.206623664812E-11
  9.136659377488E-12  6.897539841298E-12  5.191304852190E-12  3.895099225975E-12
  2.913426995418E-12  2.172286568764E-12  1.614510935876E-12  1.196076858986E-12
  8.831907698378E-13  6.499952618033E-13  4.767698412855E-13  3.485240351372E-13
  2.539009311786E-13  1.843255129414E-13  1.333453756392E-13  9.612186300299E-14
  6.904016481043E-14  4.940790786788E-14  3.522790037210E-14  2.502378510738E-14
  1.770822744407E-14  1.248338763734E-14  8.766050085075E-15  6.131513207828E-15
  4.271702355660E-15  2.964006890367E-15  0.000000000000E+00  0.000000000000E+00
  0.000000000000E+00  0.000000000000E+00  0.000000000000E+00  0.000000000000E+00
  0.000000000000E+00  0.000000000000E+00  0.000000000000E+00  0.000000000000E+00
  0.000000000000E+00  0.000000000000E+00  0.000000000000E+00  0.000000000000E+00
  0.000000000000E+00  0.000000000000E+00  0.000000000000E+00  0.000000000000E+00
  0.000000000000E+00  0.000000000000E+00  0.000000000000E+00  0.000000000000E+00
  0.000000000000E+00  0.000000000000E+00  0.000000000000E+00  0.000000000000E+00
  0.000000000000E+00  0.000000000000E+00  0.000000000000E+00  0.000000000000E+00
  0.000000000000E+00  0.000000000000E+00  0.000000000000E+00  0.000000000000E+00
  0.000000000000E+00  0.000000000000E+00  0.000000000000E+00  0.000000000000E+00
  0.000000000000E+00
</data>
</radfunc>
</valence-charge>
<pseudocore-charge matching-radius="0.732254969646"
 number-of-continuous-derivatives="4">
<annotation model-charge-form="Teter function with specified parameters" />
<radfunc>
<data npts="290">
  2.879549024057E+00  2.879347057091E+00  2.878723866653E+00  2.877692336705E+00
  2.876258219952E+00  2.874372619776E+00  2.871969628289E+00  2.869218243974E+00
  2.866124923180E+00  2.862518044074E+00  2.858453018342E+00  2.854035269117E+00
  2.848697078205E+00  2.843122955717E+00  2.836548879228E+00  2.829985023339E+00
  2.822428699756E+00  2.815268229139E+00  2.807220965266E+00  2.798179984348E+00
  2.788026250216E+00  2.779013645909E+00  2.769130121267E+00  2.758294978181E+00
  2.746420767486E+00  2.733412879752E+00  2.719169147080E+00  2.707609398819E+00
  2.695243234126E+00  2.682018471538E+00  2.667880179576E+00  2.652770632327E+00
  2.636629283310E+00  2.619392761627E+00  2.600994894950E+00  2.581366764507E+00
  2.560436797881E+00  2.538130906123E+00  2.522458260815E+00  2.506117005477E+00
  2.489083600351E+00  2.471334180100E+00  2.452844607438E+00  2.433590534482E+00
  2.413547472487E+00  2.392690870603E+00  2.370996204347E+00  2.348439074497E+00
  2.324995317093E+00  2.300641125291E+00  2.275353183757E+00  2.249108816311E+00
  2.221886147491E+00  2.193664278667E+00  2.164423479291E+00  2.134145393781E+00
  2.102813264457E+00  2.070412170815E+00  2.036929285290E+00  2.002354145482E+00
  1.966678942600E+00  1.929898825645E+00  1.892012220560E+00  1.853021163247E+00
  1.812931644968E+00  1.771753968239E+00  1.729503110825E+00  1.707981289107E+00
  1.686199094939E+00  1.664159880158E+00  1.641867358147E+00  1.619325615221E+00
  1.596539121867E+00  1.573512743779E+00  1.550251752657E+00  1.526761836701E+00
  1.503049110768E+00  1.479120126115E+00  1.454981879681E+00  1.430641822837E+00
  1.406107869549E+00  1.381388403871E+00  1.356492286702E+00  1.331428861738E+00
  1.306207960526E+00  1.280839906562E+00  1.255335518320E+00  1.229706111157E+00
  1.203963497984E+00  1.178119988630E+00  1.152188387791E+00  1.126181991496E+00
  1.100114581973E+00  1.074000420839E+00  1.047854240526E+00  1.021691233832E+00
  9.955270415306E-01  9.693777379393E-01  9.432598143728E-01  9.171901603934E-01
  8.911860427910E-01  8.652650822235E-01  8.394452274557E-01  8.137447271443E-01
  7.881820991264E-01  7.627760971765E-01  7.375456752120E-01  7.125099489370E-01
  6.876881549312E-01  6.630996072029E-01  6.387636512457E-01  6.146996156529E-01
  5.909267613651E-01  5.674642286476E-01  5.443309819140E-01  5.215457525374E-01
  4.991269798131E-01  4.770927502643E-01  4.554607355036E-01  4.342481288958E-01
  4.134715812872E-01  3.931471361012E-01  3.732901641205E-01  3.539152983073E-01
  3.350363690387E-01  3.166663401557E-01  2.988172462550E-01  2.815001316678E-01
  2.647249915954E-01  2.485007158850E-01  2.328350359457E-01  2.177344753136E-01
  2.032043043842E-01  1.892484998281E-01  1.758697092077E-01  1.630692213003E-01
  1.508469426211E-01  1.392013806161E-01  1.281296339683E-01  1.176273904272E-01
  1.076889325243E-01  9.830715149251E-02  8.947356964665E-02  8.117837141664E-02
  7.341044315366E-02  6.615742174813E-02  5.940575201205E-02  5.314075268548E-02
  4.734669082827E-02  4.200686425626E-02  3.710369157502E-02  3.261880925719E-02
  2.853317510161E-02  2.482717730646E-02  2.148074828548E-02  1.847348225938E-02
  1.578475556393E-02  1.339384853636E-02  1.128006777285E-02  9.422867495772E-03
  7.801968730974E-03  6.397474975720E-03  5.189983038032E-03  4.160687750195E-03
  3.291479304020E-03  2.565032024216E-03  1.964883489023E-03  1.475503024197E-03
  1.082348736601E-03  7.719124157439E-04  5.317518135474E-04  3.505100116519E-04
  2.179217983242E-04  1.248071993369E-04  6.305253444073E-05  2.557959797325E-05
  6.303783142203E-06  8.217865024040E-08  2.652857571120E-06  1.056674577724E-05
  2.111359507770E-05  3.224368937908E-05  4.248697619021E-05  5.087133718645E-05
  5.684168804063E-05  6.018152840891E-05  6.093844845537E-05  5.935494088299E-05
  5.580567107601E-05  5.074212828931E-05  4.464532505715E-05  3.798693873487E-05
  3.119900805013E-05  2.465201920366E-05  1.864095123893E-05  1.337860975965E-05
  8.995371599917E-06  5.544299513447E-06  3.010472371126E-06  1.323317552234E-06
  3.707303877106E-07  1.381999540746E-08  1.012279731286E-07  4.821195844649E-07
  1.017136993397E-06  1.586819236680E-06  2.097220806386E-06  2.482685949387E-06
  2.705945139768E-06  2.755880730632E-06  2.643449603042E-06  2.396343597008E-06
  2.053009060612E-06  1.656634405134E-06  1.249652665596E-06  8.692022491214E-07
  5.438542251855E-07  2.917621116713E-07  1.202349352857E-07  2.659119421104E-08
  3.360523326806E-11  2.420278987711E-08  8.002906582768E-08  1.485073326974E-07
  2.130678167752E-07  2.612976469261E-07  2.858735127002E-07  2.846801235586E-07
  2.601981232483E-07  2.183348097154E-07  1.669305709480E-07  1.141967629128E-07
  6.732545027633E-08  3.146208684820E-08  9.157810502576E-09  3.311225427167E-10
  0.000000000000E+00  0.000000000000E+00  0.000000000000E+00  0.000000000000E+00
  0.000000000000E+00  0.000000000000E+00  0.000000000000E+00  0.000000000000E+00
  0.000000000000E+00  0.000000000000E+00  0.000000000000E+00  0.000000000000E+00
  0.000000000000E+00  0.000000000000E+00  0.000000000000E+00  0.000000000000E+00
  0.000000000000E+00  0.000000000000E+00  0.000000000000E+00  0.000000000000E+00
  0.000000000000E+00  0.000000000000E+00  0.000000000000E+00  0.000000000000E+00
  0.000000000000E+00  0.000000000000E+00  0.000000000000E+00  0.000000000000E+00
  0.000000000000E+00  0.000000000000E+00  0.000000000000E+00  0.000000000000E+00
  0.000000000000E+00  0.000000000000E+00  0.000000000000E+00  0.000000000000E+00
  0.000000000000E+00  0.000000000000E+00  0.000000000000E+00  0.000000000000E+00
  0.000000000000E+00  0.000000000000E+00  0.000000000000E+00  0.000000000000E+00
  0.000000000000E+00  0.000000000000E+00  0.000000000000E+00  0.000000000000E+00
  0.000000000000E+00  0.000000000000E+00  0.000000000000E+00  0.000000000000E+00
  0.000000000000E+00  0.000000000000E+00
</data>
</radfunc>
</pseudocore-charge>
<semilocal-potentials set="scalar_relativistic">
<slps n="2" l="s" rc="1.20849220363">
<radfunc>
<data npts="290">
  7.790263196394E+00  7.788246695022E+00  7.782028286679E+00  7.771747655514E+00
  7.757480179173E+00  7.738766076390E+00  7.714990837220E+00  7.687869773496E+00
  7.657506502027E+00  7.622272839669E+00  7.582782465825E+00  7.540126341065E+00
  7.488942230096E+00  7.435911862925E+00  7.373908565368E+00  7.312578457906E+00
  7.242679818897E+00  7.177129976117E+00  7.104248916098E+00  7.023346853461E+00
  6.933701754501E+00  6.855189261487E+00  6.770213348357E+00  6.678381793917E+00
  6.579305184042E+00  6.472602803473E+00  6.357909459783E+00  6.266438575340E+00
  6.170146857008E+00  6.068913611855E+00  5.962632655417E+00  5.851214637145E+00
  5.734589364585E+00  5.612708060565E+00  5.485545473863E+00  5.353101749645E+00
  5.215403952117E+00  5.072507119237E+00  4.974394262773E+00  4.874038958353E+00
  4.771478372747E+00  4.666754907448E+00  4.559915893982E+00  4.451013191467E+00
  4.340102681349E+00  4.227243655921E+00  4.112498099304E+00  3.995929862232E+00
  3.877603735150E+00  3.757584427888E+00  3.635935468591E+00  3.512718039531E+00
  3.387989773035E+00  3.261803536884E+00  3.134206245112E+00  3.005237736991E+00
  2.874929774100E+00  2.743305212147E+00  2.610377410842E+00  2.476149950609E+00
  2.340616729421E+00  2.203762515449E+00  2.065564031345E+00  1.925991642897E+00
  1.785011717862E+00  1.642589709378E+00  1.498694001497E+00  1.426185553510E+00
  1.353300531824E+00  1.280037992652E+00  1.206398177171E+00  1.132382717643E+00
  1.057994852383E+00  9.832396483917E-01  9.081242302402E-01  8.326580136003E-01
  7.568529415304E-01  6.807237214472E-01  6.042880604696E-01  5.275668965274E-01
  4.505846224964E-01  3.733693002517E-01  2.959528615003E-01  2.183712918384E-01
  1.406647944785E-01  6.287792977523E-02 -1.494027316286E-02 -9.273623727783E-02
 -1.704517940956E-01 -2.480241808870E-01 -3.253860818469E-01 -4.024657175698E-01
 -4.791869864036E-01 -5.554696612428E-01 -6.312296448611E-01 -7.063792865891E-01
 -7.808277624776E-01 -8.544815206305E-01 -9.272447925779E-01 -9.990201707374E-01
 -1.069709251173E+00 -1.139213339697E+00 -1.207434218340E+00 -1.274274967830E+00
 -1.339640840510E+00 -1.403440176595E+00 -1.465585355137E+00 -1.525993769600E+00
 -1.584588816195E+00 -1.641300881605E+00 -1.696068315008E+00 -1.748838367849E+00
 -1.799568083238E+00 -1.848225115534E+00 -1.894788459548E+00 -1.939249067797E+00
 -1.981610333666E+00 -2.021888417951E+00 -2.060112396426E+00 -2.096324206543E+00
 -2.130578372384E+00 -2.162941488551E+00 -2.193491445718E+00 -2.222316383215E+00
 -2.249513357335E+00 -2.275186717860E+00 -2.299446190011E+00 -2.322404664286E+00
 -2.344175703010E+00 -2.364870779655E+00 -2.384596275495E+00 -2.403450268089E+00
 -2.421519157422E+00 -2.438874188554E+00 -2.455567943927E+00 -2.471630893936E+00
 -2.487068110072E+00 -2.501856259949E+00 -2.515941016581E+00 -2.529235023558E+00
 -2.541616561921E+00 -2.552929061721E+00 -2.562981590383E+00 -2.571550430099E+00
 -2.578381827396E+00 -2.583195960110E+00 -2.585692121224E+00 -2.585555067138E+00
 -2.582462422079E+00 -2.576092973406E+00 -2.566135637527E+00 -2.552298826412E+00
 -2.534319903390E+00 -2.511975454957E+00 -2.485078647329E+00 -2.455997738662E+00
 -2.427204402854E+00 -2.398666583323E+00 -2.370405577210E+00 -2.342410289789E+00
 -2.314683440963E+00 -2.287225967746E+00 -2.260039758989E+00 -2.233127268805E+00