<?xml version="1.0" encoding="UTF-8" ?>
<psml version="1.1" energy_unit="hartree" length_unit="bohr"
 uuid="a9746b70-431a-11e8-596f-318af5bba870"
 xmlns="http://esl.cecam.org/PSML/ns/1.1">
<provenance creator="ONCVPSP-3.3.0+psml-3.3.0-73 (fully-relativistic)"
 date="2018-04-18">
<annotation action="semilocal-pseudopotential-generation"
 action-cont="projectors-generation" />
<input-file name="oncvpsp-input">
<![CDATA[# atsym z nc nv iexc psfile
Cs 55 9 3 4 both
# n l f
1 0 2.0
2 0 2.0
2 1 6.0
3 0 2.0
3 1 6.0
3 2 10.0
4 0 2.0
4 1 6.0
4 2 10.0
5 0 2.0
5 1 6.0
6 0 1.0
# lmax
3
# l rc ep ncon nbas qcut
0 2.25 0.0 4 7 4.8
1 1.85 0.0 4 7 6.0
2 2.0 0.0 4 8 6.2
3 1.9 0.05 4 7 8.8
# lloc lpopt rc5 dvloc0
4 5 1.85 0.0
# l nproj debl
0 2 1.0
1 2 5.0
2 2 5.0
3 2 2.0
# icmod fcfact rcfact
3 5.0 1.4
# epsh1 epsh2 depsh
-12.0 12.0 0.02
# rlmax drl
6.0 0.01
 0
]]>
</input-file>
</provenance>
<pseudo-atom-spec atomic-label="Cs" atomic-number="55" z-pseudo="9"
 flavor="Hamann&apos;s oncvpsp" relativity="dirac" spin-dft="no"
 core-corrections="yes">
<annotation pseudo-energy="-20.4172204004" />
<exchange-correlation>
<annotation oncvpsp-xc-code="4" oncvpsp-xc-type="GGA -- Perdew-Burke-Ernzerhof" />
<libxc-info number-of-functionals="2">
<functional name="Perdew, Burke &amp; Ernzerhof (GGA)" type="exchange" id="101" />
<functional name="Perdew, Burke &amp; Ernzerhof (GGA)" type="correlation"
 id="130" />
</libxc-info>
</exchange-correlation>
<valence-configuration total-valence-charge="9">
<shell n="5" l="s" occupation="2" />
<shell n="5" l="p" occupation="6" />
<shell n="6" l="s" occupation="1" />
</valence-configuration>
</pseudo-atom-spec>
<grid npts="457">
<annotation type="sampled from oncvpsp log grid"
 recipe="r(i:1..N) = r1*exp(a*(i-1)) + r=0; resampled"
 recipe-cont="r1: scale; a: step" scale="0.909090909091E-05"
 step="0.119285708653E-01" delta="0.500000000000E-02" rmax="44.3250217340" />
<grid-data>
  0.000000000000E+00  5.001478766148E-03  1.010994206942E-02  1.516652523997E-02
  2.019381588391E-02  2.533075473382E-02  3.065747126796E-02  3.579999718257E-02
  4.081958922404E-02  4.599109555586E-02  5.120334903089E-02  5.633035232730E-02
  6.197072366114E-02  6.736745720739E-02  7.323416643326E-02  7.866776607706E-02
  8.450451095384E-02  8.969793712724E-02  9.521053768690E-02  1.010619282556E-01
  1.072729299810E-01  1.125154581265E-01  1.180141935123E-01  1.237816572254E-01
  1.298309822696E-01  1.361759434711E-01  1.428309888448E-01  1.480348542423E-01
  1.534283158563E-01  1.590182813837E-01  1.648119101947E-01  1.708166225019E-01
  1.770401088640E-01  1.834903400354E-01  1.901755771749E-01  1.971043824259E-01
  2.042856298828E-01  2.117285169563E-01  2.168404902697E-01  2.220758870668E-01
  2.274376872841E-01  2.329289428059E-01  2.385527792010E-01  2.443123975020E-01
  2.502110760273E-01  2.562521722469E-01  2.624391246936E-01  2.687754549202E-01
  2.752647695038E-01  2.819107620987E-01  2.887172155388E-01  2.956880039908E-01
  3.028270951592E-01  3.101385525447E-01  3.176265377573E-01  3.252953128849E-01
  3.331492429192E-01  3.411927982403E-01  3.494305571610E-01  3.578672085331E-01
  3.665075544159E-01  3.753565128097E-01  3.844191204550E-01  3.937005356993E-01
  4.032060414332E-01  4.129410480976E-01  4.229110967628E-01  4.279860299240E-01
  4.331218622831E-01  4.383193246305E-01  4.435791565260E-01  4.489021064043E-01
  4.542889316812E-01  4.597403988614E-01  4.652572836477E-01  4.708403710515E-01
  4.764904555041E-01  4.822083409701E-01  4.879948410618E-01  4.938507791545E-01
  4.997769885044E-01  5.057743123664E-01  5.118436041148E-01  5.179857273642E-01
  5.242015560926E-01  5.304919747657E-01  5.368578784629E-01  5.433001730044E-01
  5.498197750805E-01  5.564176123815E-01  5.630946237300E-01  5.698517592148E-01
  5.766899803254E-01  5.836102600893E-01  5.906135832103E-01  5.977009462089E-01
  6.048733575634E-01  6.121318378541E-01  6.194774199084E-01  6.269111489473E-01
  6.344340827347E-01  6.420472917275E-01  6.497518592282E-01  6.575488815389E-01
  6.654394681174E-01  6.734247417348E-01  6.815058386356E-01  6.896839086993E-01
  6.979601156037E-01  7.063356369909E-01  7.148116646348E-01  7.233894046104E-01
  7.320700774657E-01  7.408549183953E-01  7.497451774161E-01  7.587421195451E-01
  7.678470249796E-01  7.770611892794E-01  7.863859235507E-01  7.958225546333E-01
  8.053724252889E-01  8.150368943924E-01  8.248173371251E-01  8.347151451706E-01
  8.447317269126E-01  8.548685076356E-01  8.651269297272E-01  8.755084528839E-01
  8.860145543186E-01  8.966467289704E-01  9.074064897180E-01  9.182953675946E-01
  9.293149120058E-01  9.404666909498E-01  9.517522912412E-01  9.631733187361E-01
  9.747313985610E-01  9.864281753437E-01  9.982653134478E-01  1.010244497209E+00
  1.022367431176E+00  1.034635840350E+00  1.047051470434E+00  1.059616088079E+00
  1.072331481136E+00  1.085199458910E+00  1.098221852417E+00  1.111400514646E+00
  1.124737320821E+00  1.138234168671E+00  1.151892978695E+00  1.165715694440E+00
  1.179704282773E+00  1.193860734166E+00  1.208187062976E+00  1.222685307732E+00
  1.237357531425E+00  1.252205821802E+00  1.267232291663E+00  1.282439079163E+00
  1.297828348113E+00  1.313402288291E+00  1.329163115750E+00  1.345113073139E+00
  1.361254430017E+00  1.377589483177E+00  1.394120556975E+00  1.410850003659E+00
  1.427780203703E+00  1.444913566147E+00  1.462252528941E+00  1.479799559288E+00
  1.497557154000E+00  1.515527839848E+00  1.533714173926E+00  1.552118744013E+00
  1.570744168941E+00  1.589593098969E+00  1.608668216156E+00  1.627972234750E+00
  1.647507901567E+00  1.667277996386E+00  1.687285332343E+00  1.707532756331E+00
  1.728023149407E+00  1.748759427199E+00  1.769744540326E+00  1.790981474810E+00
  1.812473252507E+00  1.834222931538E+00  1.856233606716E+00  1.878508409997E+00
  1.901050510917E+00  1.923863117048E+00  1.946949474452E+00  1.970312868146E+00
  1.993956622563E+00  2.017884102034E+00  2.042098711258E+00  2.066603895794E+00
  2.091403142543E+00  2.116499980254E+00  2.141897980017E+00  2.167600755777E+00
  2.193611964846E+00  2.219935308424E+00  2.246574532125E+00  2.273533426511E+00
  2.300815827629E+00  2.328425617561E+00  2.356366724971E+00  2.384643125671E+00
  2.413258843179E+00  2.442217949297E+00  2.471524564689E+00  2.501182859465E+00
  2.531197053779E+00  2.561571418424E+00  2.592310275445E+00  2.623417998750E+00
  2.654899014735E+00  2.686757802912E+00  2.718998896547E+00  2.751626883306E+00
  2.784646405905E+00  2.818062162776E+00  2.851878908730E+00  2.886101455634E+00
  2.920734673102E+00  2.955783489179E+00  2.991252891049E+00  3.027147925742E+00
  3.063473700851E+00  3.100235385261E+00  3.137438209884E+00  3.175087468403E+00
  3.213188518024E+00  3.251746780240E+00  3.290767741603E+00  3.330256954502E+00
  3.370220037956E+00  3.410662678412E+00  3.451590630552E+00  3.493009718119E+00
  3.534925834737E+00  3.577344944753E+00  3.620273084090E+00  3.663716361099E+00
  3.707680957433E+00  3.752173128922E+00  3.797199206469E+00  3.842765596947E+00
  3.888878784110E+00  3.935545329519E+00  3.982771873473E+00  4.030565135955E+00
  4.078931917587E+00  4.127879100598E+00  4.177413649805E+00  4.227542613602E+00
  4.278273124966E+00  4.329612402465E+00  4.381567751295E+00  4.434146564310E+00
  4.487356323082E+00  4.541204598959E+00  4.595699054147E+00  4.650847442796E+00
  4.706657612110E+00  4.763137503455E+00  4.820295153497E+00  4.878138695339E+00
  4.936676359683E+00  4.995916475999E+00  5.055867473711E+00  5.116537883395E+00
  5.177936337996E+00  5.240071574052E+00  5.302952432941E+00  5.366587862136E+00
  5.430986916482E+00  5.496158759479E+00  5.562112664593E+00  5.628858016568E+00
  5.696404312767E+00  5.764761164520E+00  5.833938298495E+00  5.903945558077E+00
  5.974792904773E+00  6.046490419631E+00  6.119048304666E+00  6.192476884322E+00
  6.266786606934E+00  6.341988046217E+00  6.418091902772E+00  6.495109005605E+00
  6.573050313673E+00  6.651926917437E+00  6.731750040446E+00  6.812531040931E+00
  6.894281413422E+00  6.977012790383E+00  7.060736943868E+00  7.145465787194E+00
  7.231211376641E+00  7.317985913161E+00  7.405801744118E+00  7.494671365048E+00
  7.584607421428E+00  7.675622710486E+00  7.767730183011E+00  7.860942945208E+00
  7.955274260550E+00  8.050737551677E+00  8.147346402297E+00  8.245114559124E+00
  8.344055933834E+00  8.444184605040E+00  8.545514820300E+00  8.648060998144E+00
  8.751837730122E+00  8.856859782883E+00  8.963142100278E+00  9.070699805481E+00
  9.179548203147E+00  9.289702781585E+00  9.401179214964E+00  9.513993365543E+00
  9.628161285930E+00  9.743699221361E+00  9.860623612017E+00  9.978951095361E+00
  1.009869850851E+01  1.021988289061E+01  1.034252148530E+01  1.046663174312E+01
  1.059223132404E+01  1.071933809992E+01  1.084797015712E+01  1.097814579901E+01
  1.110988354860E+01  1.124320215118E+01  1.137812057699E+01  1.151465802392E+01
  1.165283392021E+01  1.179266792725E+01  1.193417994237E+01  1.207739010168E+01
  1.222231878290E+01  1.236898660830E+01  1.251741444760E+01  1.266762342097E+01
  1.281963490202E+01  1.297347052084E+01  1.312915216710E+01  1.328670199310E+01
  1.344614241702E+01  1.360749612602E+01  1.377078607953E+01  1.393603551249E+01
  1.410326793864E+01  1.427250715390E+01  1.444377723975E+01  1.461710256663E+01
  1.479250779743E+01  1.497001789099E+01  1.514965810569E+01  1.533145400295E+01
  1.551543145099E+01  1.570161662840E+01  1.589003602794E+01  1.608071646028E+01
  1.627368505780E+01  1.646896927849E+01  1.666659690984E+01  1.686659607275E+01
  1.706899522563E+01  1.727382316834E+01  1.748110904636E+01  1.769088235491E+01
  1.790317294317E+01  1.811801101849E+01  1.833542715071E+01  1.855545227652E+01
  1.877811770384E+01  1.900345511628E+01  1.923149657768E+01  1.946227453661E+01
  1.969582183105E+01  1.993217169302E+01  2.017135775334E+01  2.041341404638E+01
  2.065837501494E+01  2.090627551511E+01  2.115715082130E+01  2.141103663115E+01
  2.166796907073E+01  2.192798469957E+01  2.219112051597E+01  2.245741396216E+01
  2.272690292971E+01  2.299962576486E+01  2.327562127404E+01  2.355492872933E+01
  2.383758787408E+01  2.412363892857E+01  2.441312259571E+01  2.470608006686E+01
  2.500255302766E+01  2.530258366400E+01  2.560621466796E+01  2.591348924398E+01
  2.622445111491E+01  2.653914452829E+01  2.685761426263E+01  2.717990563378E+01
  2.750606450138E+01  2.783613727540E+01  2.817017092270E+01  2.850821297378E+01
  2.885031152946E+01  2.919651526782E+01  2.954687345103E+01  2.990143593244E+01
  3.026025316363E+01  3.062337620160E+01  3.099085671601E+01  3.136274699661E+01
  3.173909996057E+01  3.211996916009E+01  3.250540879001E+01  3.289547369549E+01
  3.329021937984E+01  3.368970201240E+01  3.409397843655E+01  3.450310617779E+01
  3.491714345192E+01  3.533614917334E+01  3.576018296342E+01  3.618930515898E+01
  3.662357682089E+01  3.706305974274E+01  3.750781645965E+01  3.795791025717E+01
  3.841340518026E+01  3.887436604242E+01  3.934085843493E+01  3.981294873615E+01
  4.029070412098E+01  4.077419257043E+01  4.126348288128E+01  4.175864467585E+01
  4.225974841196E+01  4.276686539291E+01  4.328006777762E+01  4.379942859095E+01
  4.432502173405E+01
</grid-data>
</grid>
<valence-charge total-charge="9" is-unscreening-charge="yes"
 rescaled-to-z-pseudo="no">
<radfunc>
<data npts="457">
  3.603097120657E-02  3.604481571363E-02  3.608755665866E-02  3.615837755750E-02
  3.625699276096E-02  3.638692702820E-02  3.655296487480E-02  3.674369699878E-02
  3.695892724943E-02  3.721095499876E-02  3.749637341031E-02  3.780821923951E-02
  3.818735657276E-02  3.858596993910E-02  3.905967956799E-02  3.953654779956E-02
  4.009036709764E-02  4.061999033862E-02  4.122083547200E-02  4.190303308872E-02
  4.267829399083E-02  4.337455686688E-02  4.414696519211E-02  4.500448818317E-02
  4.595727337718E-02  4.701682260476E-02  4.819619742291E-02  4.916822885506E-02
  5.022300253770E-02  5.136827569703E-02  5.261262569308E-02  5.396554729706E-02
  5.543756245511E-02  5.704034418092E-02  5.878685642459E-02  6.069151199100E-02
  6.277035082653E-02  6.504124125975E-02  6.667161034441E-02  6.840260583154E-02
  7.024118352204E-02  7.219483266721E-02  7.427161952334E-02  7.648023444549E-02
  7.883004277371E-02  8.133113977489E-02  8.399440991145E-02  8.683159071403E-02
  8.985534153847E-02  9.307931748657E-02  9.651824876492E-02  1.001880257446E-01
  1.041057899664E-01  1.082900313075E-01  1.127606914896E-01  1.175392740541E-01
  1.226489608648E-01  1.281147351136E-01  1.339635106947E-01  1.402242676817E-01
  1.469281934795E-01  1.541088290215E-01  1.618022191500E-01  1.700470660284E-01
  1.788848841027E-01  1.883601547324E-01  1.985204781503E-01  2.038732987448E-01
  2.094167198797E-01  2.151576324997E-01  2.211031481176E-01  2.272606023114E-01
  2.336375578953E-01  2.402418077165E-01  2.470813770275E-01  2.541645253776E-01
  2.614997479624E-01  2.690957763691E-01  2.769615786457E-01  2.851063586214E-01
  2.935395543988E-01  3.022708359313E-01  3.113101015980E-01  3.206674736777E-01
  3.303532926219E-01  3.403781100181E-01  3.507526801297E-01  3.614879498931E-01
  3.725950472461E-01  3.840852676548E-01  3.959700587021E-01  4.082610025930E-01
  4.209697964286E-01  4.341082300932E-01  4.476881615944E-01  4.617214896934E-01
  4.762201236567E-01  4.911959499581E-01  5.066607957568E-01  5.226263889778E-01
  5.391043148184E-01  5.561059685059E-01  5.736425041359E-01  5.917247794223E-01
  6.103632961972E-01  6.295681365067E-01  6.493488941588E-01  6.697146015936E-01
  6.906736519583E-01  7.122337162926E-01  7.344016557493E-01  7.571834288001E-01
  7.805839934091E-01  8.046072041860E-01  8.292557045730E-01  8.545308141591E-01
  8.804324112653E-01  9.069588109956E-01  9.341066390083E-01  9.618707013241E-01
  9.902438505591E-01  1.019216849045E+00  1.048778229380E+00  1.078914153039E+00
  1.109608267770E+00  1.140841564589E+00  1.172592235314E+00  1.204835531642E+00
  1.237543626943E+00  1.270685481996E+00  1.304226716074E+00  1.338129484836E+00
  1.372352366668E+00  1.406850259171E+00  1.441574287656E+00  1.476471727578E+00
  1.511485942967E+00  1.546556342971E+00  1.581618358747E+00  1.616603442951E+00
  1.651439094140E+00  1.686048908438E+00  1.720352660750E+00  1.754266417850E+00
  1.787702685514E+00  1.820570591838E+00  1.852776108657E+00  1.884222312846E+00
  1.914809688991E+00  1.944436474655E+00  1.972999049083E+00  2.000392365817E+00
  2.026510429185E+00  2.051246814145E+00  2.074495228359E+00  2.096150114755E+00
  2.116107292148E+00  2.134264630775E+00  2.150522758810E+00  2.164785795189E+00
  2.176962103220E+00  2.186965058691E+00  2.194713825379E+00  2.200134130133E+00
  2.203159028985E+00  2.203729655146E+00  2.201795939183E+00  2.197317291321E+00
  2.190263235509E+00  2.180613984825E+00  2.168360947891E+00  2.153507156274E+00
  2.136067603366E+00  2.116069486033E+00  2.093552341292E+00  2.068568071562E+00
  2.041180853460E+00  2.011466926890E+00  1.979514262979E+00  1.945422111550E+00
  1.909300430934E+00  1.871269205241E+00  1.831457656427E+00  1.790003360754E+00
  1.747051281364E+00  1.702752730624E+00  1.657264277583E+00  1.610746617314E+00
  1.563363419861E+00  1.515280177166E+00  1.466663066396E+00  1.417677580584E+00
  1.368486121311E+00  1.319245139336E+00  1.270104091321E+00  1.221205168638E+00
  1.172682562208E+00  1.124662009314E+00  1.077260391166E+00  1.030585419359E+00
  9.847354099437E-01  9.397991458229E-01  8.958558271203E-01  8.529751080058E-01
  8.112172173318E-01  7.706331593123E-01  7.312649894291E-01  6.931461597898E-01
  6.563020176277E-01  6.207507068504E-01  5.865042841235E-01  5.535690735767E-01
  5.219460357187E-01  4.916311343085E-01  4.626157059301E-01  4.348868283192E-01
  4.084276854954E-01  3.832179276293E-01  3.592340239135E-01  3.364496067513E-01
  3.148358058942E-01  2.943615711738E-01  2.749939829515E-01  2.566985491858E-01
  2.394394884383E-01  2.231799981812E-01  2.078825079125E-01  1.935089167079E-01
  1.800208149569E-01  1.673796901339E-01  1.555471165636E-01  1.444849292334E-01
  1.341553818042E-01  1.245212890561E-01  1.155461540961E-01  1.071942807327E-01
  9.943087150026E-02  9.222211188589E-02  8.553524137421E-02  7.933861198146E-02
  7.360173499613E-02  6.829531668002E-02  6.339128371045E-02  5.886279915975E-02
  5.468426981397E-02  5.083134562735E-02  4.728091209477E-02  4.401107630053E-02
  4.100114737064E-02  3.823161201793E-02  3.568410582678E-02  3.334138087899E-02
  3.118727027567E-02  2.920665006564E-02  2.738539904910E-02  2.571035689075E-02
  2.416928094909E-02  2.275080221093E-02  2.144438071225E-02  2.024026082683E-02
  1.912942681005E-02  1.810355899120E-02  1.715499100706E-02  1.627666845319E-02
  1.546210929156E-02  1.470536628709E-02  1.400099165363E-02  1.334400397791E-02
  1.272985737181E-02  1.215441269666E-02  1.161391062526E-02  1.110494626871E-02
  1.062444510031E-02  1.016963994897E-02  9.738048898953E-03  9.327454002419E-03
  8.935880775472E-03  8.561578495043E-03  8.203001341840E-03  7.858790443255E-03
  7.527756864304E-03  7.208865578998E-03  6.901220434154E-03  6.604050096203E-03
  6.316694952188E-03  6.038594920476E-03  5.769278115996E-03  5.508350309349E-03
  5.255485118991E-03  5.010414880298E-03  4.772922143897E-03  4.542831766879E-03
  4.320003572964E-03  4.104325569692E-03  3.895707720820E-03  3.694076279030E-03
  3.499368687218E-03  3.311529055770E-03  3.130504218925E-03  2.956240366227E-03
  2.788680236493E-03  2.627760852519E-03  2.473411766191E-03  2.325553776207E-03
  2.184098075046E-03  2.048945780509E-03  1.919987790194E-03  1.797104935593E-03
  1.680168362197E-03  1.569040103361E-03  1.463573803494E-03  1.363615552543E-03
  1.269004797843E-03  1.179575303627E-03  1.095156132619E-03  1.015572628084E-03
  9.406473784110E-04  8.702011496979E-04  8.040537748844E-04  7.420249907074E-04
  6.839352161743E-04  6.296062683437E-04  5.788620130053E-04  5.315289493793E-04
  4.874367292334E-04  4.464186118626E-04  4.083118572175E-04  3.729580601247E-04
  3.402034290289E-04  3.098990130317E-04  2.819008812110E-04  2.560702583051E-04
  2.322736208426E-04  2.103827577178E-04  1.902747990541E-04  1.718322169958E-04
  1.549428018107E-04  1.394996164175E-04  1.254009321507E-04  1.125501482831E-04
  1.008556975346E-04  9.023093951625E-05  8.059404381087E-05  7.186786415857E-05
  6.397980502487E-05  5.686168166221E-05  5.044957464472E-05  4.468367975316E-05
  3.950815401141E-05  3.487095862237E-05  3.072369951656E-05  2.702146620504E-05
  2.372266961615E-05  2.078887958785E-05  1.818466268107E-05  1.587742097112E-05
  1.383723246135E-05  1.203669374485E-05  1.045076551443E-05  9.056621488269E-06
  7.833501279062E-06  6.762567688308E-06  5.826768855553E-06  5.010705636583E-06
  4.300504525453E-06  3.683696374465E-06  3.149101105100E-06  2.686718542581E-06
  2.287625448389E-06  1.943878769666E-06  1.648425072733E-06  1.395016080669E-06
  1.178130192404E-06  9.928998234685E-07  8.350443764506E-07  7.008086224865E-07
  5.869062534859E-07  4.904683482202E-07  4.089964834724E-07  3.403202138927E-07
  2.825586405890E-07  2.340857884152E-07  1.934995149589E-07  1.595936799423E-07
  1.313333117138E-07  1.078325173151E-07  8.833489387932E-08  7.219621148318E-08
  5.886915073620E-08  4.788989203128E-08  3.886636726450E-08  3.146799872683E-08
  2.541676359127E-08  2.047943580945E-08  1.646087016347E-08  1.319820559328E-08
  1.055587666085E-08  8.421333067832E-09  6.701377479042E-09  5.319041503054E-09
  4.210928541176E-09  3.324960345735E-09  2.618471547103E-09  2.056603142455E-09
  1.610952020182E-09  1.258439058651E-09  9.803632258559E-10  7.616134584478E-10
  5.900139561371E-10  4.557819320151E-10  3.510798513029E-10  2.696468096042E-10
  2.064959841264E-10  1.576670727678E-10  1.200243493182E-10  9.109243879358E-11
  6.892318315417E-11  5.198804993804E-11  3.909145789497E-11  2.930117543744E-11
  2.189260836357E-11  1.630434952301E-11  1.210282965153E-11  8.954298490506E-12
  6.602689919824E-12  4.852194092297E-12  3.553582071240E-12  2.593511670911E-12
  1.886193464850E-12  1.366918717769E-12  9.870509584535E-13  7.101639806808E-13
  5.090745572371E-13  3.635708673715E-13  2.586799021878E-13  1.833508664017E-13
  1.294584472156E-13  9.105109911267E-14  6.378628766458E-14  4.450783797823E-14
  3.093087064274E-14  2.140786902349E-14  1.475568201367E-14  1.012810809971E-14
  6.922435659211E-15  4.711174415507E-15  3.192397155552E-15  2.153771735461E-15
  1.446620884214E-15  9.672953106677E-16  6.438570250789E-16  4.266014689510E-16
  2.813414853543E-16  0.000000000000E+00  0.000000000000E+00  0.000000000000E+00
  0.000000000000E+00
</data>
</radfunc>
</valence-charge>
<pseudocore-charge matching-radius="1.32916311575"
 number-of-continuous-derivatives="4">
<annotation model-charge-form="Teter function with specified parameters" />
<radfunc>
<data npts="290">
  1.174099902904E+01  1.174073105099E+01  1.173990410151E+01  1.173853505283E+01
  1.173663117490E+01  1.173412701221E+01  1.173093422591E+01  1.172727646689E+01
  1.172316148191E+01  1.171835977552E+01  1.171294357149E+01  1.170705188104E+01
  1.169992495937E+01  1.169247403844E+01  1.168367460912E+01  1.167487599509E+01
  1.166473103221E+01  1.165510168397E+01  1.164426129461E+01  1.163205882874E+01
  1.161832475694E+01  1.160610768630E+01  1.159268121454E+01  1.157792714922E+01
  1.156171606854E+01  1.154390632235E+01  1.152434295885E+01  1.150841829579E+01
  1.149133505970E+01  1.147301078850E+01  1.145335743193E+01  1.143228101656E+01
  1.140968129776E+01  1.138545139934E+01  1.135947744181E+01  1.133163816085E+01
  1.130180451752E+01  1.126983930260E+01  1.124727332831E+01  1.122364999165E+01
  1.119892207763E+01  1.117304049636E+01  1.114595423252E+01  1.111761029629E+01
  1.108795367600E+01  1.105692729292E+01  1.102447195880E+01  1.099052633656E+01
  1.095502690489E+01  1.091790792733E+01  1.087910142659E+01  1.083853716494E+01
  1.079614263153E+01  1.075184303768E+01  1.070556132108E+01  1.065721816015E+01
  1.060673199985E+01  1.055401909006E+01  1.049899353840E+01  1.044156737859E+01
  1.038165065646E+01  1.031915153516E+01  1.025397642161E+01  1.018603011624E+01
  1.011521598819E+01  1.004143617831E+01  9.964591832298E+00  9.924989358906E+00
  9.884583366677E+00  9.843361343161E+00  9.801310770061E+00  9.758419134776E+00
  9.714673942608E+00  9.670062729651E+00  9.624573076393E+00  9.578192622041E+00
  9.530909079602E+00  9.482710251743E+00  9.433584047444E+00  9.383518499474E+00
  9.332501782711E+00  9.280522233323E+00  9.227568368843E+00  9.173628909140E+00
  9.118692798324E+00  9.062749227596E+00  9.005787659060E+00  8.947797850517E+00
  8.888769881253E+00  8.828694178843E+00  8.767561546974E+00  8.705363194300E+00
  8.642090764346E+00  8.577736366456E+00  8.512292607793E+00  8.445752626393E+00
  8.378110125275E+00  8.309359407587E+00  8.239495412802E+00  8.168513753925E+00
  8.096410755717E+00  8.023183493900E+00  7.948829835322E+00  7.873348479052E+00
  7.796738998357E+00  7.719001883539E+00  7.640138585558E+00  7.560151560401E+00
  7.479044314129E+00  7.396821448530E+00  7.313488707298E+00  7.229053022655E+00
  7.143522562315E+00  7.056906776686E+00  6.969216446202E+00  6.880463728643E+00
  6.790662206323E+00  6.699826933001E+00  6.607974480338E+00  6.515122983751E+00
  6.421292187478E+00  6.326503488654E+00  6.230779980197E+00  6.134146492289E+00
  6.036629632218E+00  5.938257822336E+00  5.839061335879E+00  5.739072330382E+00
  5.638324878405E+00  5.536854995272E+00  5.434700663527E+00  5.331901853787E+00
  5.228500541650E+00  5.124540720343E+00  5.020068408747E+00  4.915131654447E+00
  4.809780531442E+00  4.704067132152E+00  4.598045553347E+00  4.491771875618E+00
  4.385304136027E+00  4.278702293548E+00  4.172028186941E+00  4.065345484694E+00
  3.958719626680E+00  3.852217757191E+00  3.745908649025E+00  3.639862618328E+00
  3.534151429908E+00  3.428848192773E+00  3.324027245682E+00  3.219764032508E+00
  3.116134967308E+00  3.013217288978E+00  2.911088905470E+00  2.809828227583E+00
  2.709513992418E+00  2.610225076631E+00  2.512040299724E+00  2.415038217656E+00
  2.319296907179E+00  2.224893741360E+00  2.131905156859E+00  2.040406413632E+00
  1.950471347827E+00  1.862172118741E+00  1.775578950823E+00  1.690759871808E+00
  1.607780448197E+00  1.526703519370E+00  1.447588931779E+00  1.370493274731E+00
  1.295469619401E+00  1.222567262798E+00  1.151831478513E+00  1.083303276133E+00
  1.017019171322E+00  9.530109685650E-01  8.913055586902E-01  8.319247332405E-01
  7.748850178313E-01  7.201975265863E-01  6.678678397248E-01  6.178959063103E-01
  5.702759740882E-01  5.249965482271E-01  4.820403806370E-01  4.413844913668E-01
  4.030002233805E-01  3.668533317769E-01  3.329041082544E-01  3.011075413256E-01
  2.714135124610E-01  2.437670279900E-01  2.181084862099E-01  1.943739787523E-01
  1.724956248428E-01  1.524019366567E-01  1.340182135376E-01  1.172669624055E-01
  1.020683412501E-01  8.834062218084E-02  7.600067010949E-02  6.496443277122E-02
  5.514743745861E-02  4.646528956244E-02  3.883416778661E-02  3.217131074545E-02
  2.639548956602E-02  2.142746111395E-02  1.719039654580E-02  1.361028006805E-02
  1.061627305764E-02  8.141039071434E-03  6.121025743218E-03  4.496700133086E-03
  3.212734749646E-03  2.218142203169E-03  1.466357255501E-03  9.152658971865E-04
  5.271819869682E-04  2.687729147694E-04  1.109366752259E-04  2.863364196224E-05
  6.771889973867E-07  9.488090350947E-06  4.081831774473E-05  8.345042601054E-05
  1.288791451750E-04  1.709820689033E-04  2.056864266363E-04  2.306388417217E-04
  2.448847060644E-04  2.485633454850E-04  2.426245179368E-04  2.285709947654E-04
  2.082310459107E-04  1.835636123832E-04  1.564978382812E-04  1.288074894121E-04
  1.020196488592E-04  7.735599564367E-05  5.570398455722E-05  3.761439422422E-05
  2.332103258583E-05  1.277791341394E-05  5.708964338746E-06  1.665305859708E-06
  8.534987735087E-08  3.533912051000E-07  1.852980059504E-06  4.012130394575E-06
  6.338291560700E-06  8.441935768158E-06  1.004853424114E-05  1.099955381576E-05
  1.124385006118E-05  1.082141760794E-05  9.841849446850E-06  8.460034973237E-06
  6.851588139593E-06  5.190255780771E-06  3.629141726571E-06  2.287038508724E-06
  1.240539622327E-06  5.219715712683E-07  1.225968157453E-07  5.129776733101E-11
  8.863751454853E-08  3.109245712179E-07  5.891198756110E-07  8.548626473857E-07
  1.056417572090E-06  1.162672198327E-06  1.163807870728E-06  1.068961081618E-06
  9.015637768109E-07  6.933020830713E-07  4.777350452927E-07  2.845613579660E-07
  1.353281313947E-07  4.107702003191E-08  2.070099663301E-09  0.000000000000E+00
  0.000000000000E+00  0.000000000000E+00  0.000000000000E+00  0.000000000000E+00
  0.000000000000E+00  0.000000000000E+00
</data>
</radfunc>
</pseudocore-charge>
<semilocal-potentials set="scalar_relativistic">
<slps n="5" l="s" rc="2.27353342651">
<radfunc>
<data npts="290">
  1.505021429338E+01  1.504588670099E+01  1.503254153578E+01  1.501047884789E+01
  1.497986083039E+01  1.493970138229E+01  1.488868259175E+01  1.483048604110E+01
  1.476533456372E+01  1.468973505669E+01  1.460500471785E+01  1.451348428673E+01
  1.440366866737E+01  1.428989257337E+01  1.415686372635E+01  1.402527512869E+01
  1.387529369403E+01  1.373463200213E+01  1.357822139081E+01  1.340457061745E+01
  1.321211424538E+01  1.304351806139E+01  1.286099377917E+01  1.266367944511E+01
  1.245071354865E+01  1.222124654921E+01  1.197445434340E+01  1.177751734852E+01
  1.157008339051E+01  1.135186559211E+01  1.112260478841E+01  1.088207459406E+01
  1.063008667631E+01  1.036649616799E+01  1.009120714028E+01  9.804178041515E+00
  9.505426994602E+00  9.195036834226E+00  8.981716061344E+00  8.763351564948E+00
  8.540021433136E+00  8.311819161564E+00  8.078853985882E+00  7.841251131983E+00
  7.599151976826E+00  7.352714113208E+00  7.102111312577E+00  6.847533380911E+00
  6.589185903726E+00  6.327289877425E+00  6.062081225543E+00  5.793810199784E+00
  5.522740667266E+00  5.249149286879E+00  4.973324579230E+00  4.695565896179E+00
  4.416182297494E+00  4.135491343554E+00  3.853817814398E+00  3.571492366589E+00
  3.288850140408E+00  3.006229330750E+00  2.723969735745E+00  2.442411297525E+00
  2.161892649794E+00  1.882749686790E+00  1.605314167936E+00  1.467338911850E+00
  1.329912372038E+00  1.193074266445E+00  1.056863814078E+00  9.213196991829E-01
  7.864800368335E-01  6.523823400345E-01  5.190634883848E-01  3.865596983789E-01
  2.549064953977E-01  1.241386874439E-01 -5.709659332029E-03 -1.346052432765E-01
 -2.625155480102E-01 -3.894088613163E-01 -5.152542921079E-01 -6.400217854704E-01
 -7.636821357548E-01 -8.862069977335E-01 -1.007568895803E+00 -1.127741231255E+00
 -1.246698287621E+00 -1.364415234110E+00 -1.480868127160E+00 -1.596033910141E+00
 -1.709890411224E+00 -1.822416339479E+00 -1.933591279213E+00 -2.043395682629E+00
 -2.151810860818E+00 -2.258818973172E+00 -2.364403015247E+00 -2.468546805159E+00
 -2.571234968555E+00 -2.672452922233E+00 -2.772186856487E+00 -2.870423716223E+00
 -2.967151180945E+00 -3.062357643649E+00 -3.156032188736E+00 -3.248164568973E+00
 -3.338745181619E+00 -3.427765043751E+00 -3.515215766874E+00 -3.601089530901E+00
 -3.685379057537E+00 -3.768077583158E+00 -3.849178831242E+00 -3.928676984393E+00
 -4.006566656040E+00 -4.082842861837E+00 -4.157500990811E+00 -4.230536776319E+00
 -4.301946266811E+00 -4.371725796454E+00 -4.439871955627E+00 -4.506381561304E+00
 -4.571251627317E+00 -4.634479334538E+00 -4.696062000934E+00 -4.755997051524E+00
 -4.814281988204E+00 -4.870914359445E+00 -4.925891729853E+00 -4.979211649561E+00
 -5.030871623495E+00 -5.080869080477E+00 -5.129201342181E+00 -5.175865592030E+00
 -5.220858843998E+00 -5.264177911446E+00 -5.305819376062E+00 -5.345779557021E+00
 -5.384054480533E+00 -5.420639849935E+00 -5.455531016580E+00 -5.488722951762E+00
 -5.520210219973E+00 -5.549986953833E+00 -5.578046831073E+00 -5.604383053957E+00
 -5.628988331594E+00 -5.651854865597E+00 -5.672974339540E+00 -5.692337912718E+00
 -5.709936218628E+00 -5.725759368638E+00 -5.739796961221E+00 -5.752038097079E+00