<?xml version="1.0" encoding="UTF-8" ?>
<psml version="1.1" energy_unit="hartree" length_unit="bohr"
 uuid="7c3d53a0-5144-11e8-6d94-3c4ddaad10a7"
 xmlns="http://esl.cecam.org/PSML/ns/1.1">
<provenance creator="ONCVPSP-3.3.0+psml-3.3.0-73 (fully-relativistic)"
 date="2018-05-06">
<annotation action="semilocal-pseudopotential-generation"
 action-cont="projectors-generation" />
<input-file name="oncvpsp-input">
<![CDATA[# atsym z nc nv iexc psfile
Ge 32 3 5 4 both
# n l f
1 0 2.0
2 0 2.0
2 1 6.0
3 0 2.0
3 1 6.0
3 2 10.0
4 0 2.0
4 1 2.0
# lmax
2
# l rc ep ncon nbas qcut
0 1.2 0.0 4 7 9.6
1 1.3 0.0 4 7 10.5
2 1.5 0.0 4 7 11.0
# lloc lpopt rc5 dvloc0
4 5 1.2 0.0
# l nproj debl
0 2 1.0
1 2 1.5
2 2 3.0
# icmod fcfact rcfact
3 3.0 1.5
# epsh1 epsh2 depsh
-12.0 12.0 0.02
# rlmax drl
6.0 0.01
 0
]]>
</input-file>
</provenance>
<pseudo-atom-spec atomic-label="Ge" atomic-number="32" z-pseudo="22"
 flavor="Hamann&apos;s oncvpsp" relativity="dirac" spin-dft="no"
 core-corrections="yes">
<annotation pseudo-energy="-276.286262702" />
<exchange-correlation>
<annotation oncvpsp-xc-code="4" oncvpsp-xc-type="GGA -- Perdew-Burke-Ernzerhof" />
<libxc-info number-of-functionals="2">
<functional name="Perdew, Burke &amp; Ernzerhof (GGA)" type="exchange" id="101" />
<functional name="Perdew, Burke &amp; Ernzerhof (GGA)" type="correlation"
 id="130" />
</libxc-info>
</exchange-correlation>
<valence-configuration total-valence-charge="22">
<shell n="3" l="s" occupation="2" />
<shell n="3" l="p" occupation="6" />
<shell n="3" l="d" occupation="10" />
<shell n="4" l="s" occupation="2" />
<shell n="4" l="p" occupation="2" />
</valence-configuration>
</pseudo-atom-spec>
<grid npts="457">
<annotation type="sampled from oncvpsp log grid"
 recipe="r(i:1..N) = r1*exp(a*(i-1)) + r=0; resampled"
 recipe-cont="r1: scale; a: step" scale="0.156250000000E-04"
 step="0.119285708653E-01" delta="0.500000000000E-02" rmax="44.0106814606" />
<grid-data>
  0.000000000000E+00  5.025601837514E-03  1.003824527536E-02  1.505896861607E-02
  2.029121445031E-02  2.545292972101E-02  3.080533800935E-02  3.597266729221E-02
  4.101646976877E-02  4.621291924683E-02  5.145031239924E-02  5.660204419540E-02
  6.226962009944E-02  6.769238310509E-02  7.271481084123E-02  7.810987696307E-02
  8.390522932815E-02  8.906182522060E-02  9.453533200659E-02  1.003452262006E-01
  1.065121812926E-01  1.117175309401E-01  1.171772708801E-01  1.229038334035E-01
  1.289102583787E-01  1.352102229449E-01  1.418180726557E-01  1.469850337403E-01
  1.523402464797E-01  1.578905695834E-01  1.636431116494E-01  1.696052402683E-01
  1.757845914596E-01  1.821890794514E-01  1.888269068167E-01  1.957065749787E-01
  2.028368950993E-01  2.102269993637E-01  2.153027200364E-01  2.205009889089E-01
  2.258247647852E-01  2.312770779061E-01  2.368610316751E-01  2.425798044239E-01
  2.484366512219E-01  2.544349057290E-01  2.605779820929E-01  2.668693768925E-01
  2.733126711282E-01  2.799115322600E-01  2.866697162948E-01  2.935910699251E-01
  3.006795327173E-01  3.079391393553E-01  3.153740219359E-01  3.229884123215E-01
  3.307866445486E-01  3.387731572945E-01  3.469524964043E-01  3.553293174774E-01
  3.639083885186E-01  3.726945926510E-01  3.816929308960E-01  3.909085250195E-01
  4.003466204476E-01  4.100125892517E-01  4.199119332066E-01  4.249508764051E-01
  4.300502869219E-01  4.352108903650E-01  4.404334210494E-01  4.457186221020E-01
  4.510672455672E-01  4.564800525140E-01  4.619578131442E-01  4.675013069019E-01
  4.731113225847E-01  4.787886584557E-01  4.845341223572E-01  4.903485318255E-01
  4.962327142074E-01  5.021875067779E-01  5.082137568592E-01  5.143123219415E-01
  5.204840698048E-01  5.267298786425E-01  5.330506371862E-01  5.394472448324E-01
  5.459206117704E-01  5.524716591117E-01  5.591013190210E-01  5.658105348493E-01
  5.726002612674E-01  5.794714644027E-01  5.864251219755E-01  5.934622234392E-01
  6.005837701205E-01  6.077907753619E-01  6.150842646662E-01  6.224652758422E-01
  6.299348591524E-01  6.374940774622E-01  6.451440063917E-01  6.528857344684E-01
  6.607203632820E-01  6.686490076414E-01  6.766727957331E-01  6.847928692819E-01
  6.930103837133E-01  7.013265083179E-01  7.097424264177E-01  7.182593355347E-01
  7.268784475611E-01  7.356009889318E-01  7.444282007990E-01  7.533613392086E-01
  7.624016752791E-01  7.715504953825E-01  7.808091013271E-01  7.901788105430E-01
  7.996609562695E-01  8.092568877447E-01  8.189679703977E-01  8.287955860424E-01
  8.387411330750E-01  8.488060266719E-01  8.589916989919E-01  8.692995993798E-01
  8.797311945724E-01  8.902879689072E-01  9.009714245341E-01  9.117830816285E-01
  9.227244786081E-01  9.337971723514E-01  9.450027384196E-01  9.563427712806E-01
  9.678188845360E-01  9.794327111504E-01  9.911859036842E-01  1.003080134528E+00
  1.015117096143E+00  1.027298501296E+00  1.039626083312E+00  1.052101596312E+00
  1.064726815468E+00  1.077503537253E+00  1.090433579700E+00  1.103518782657E+00
  1.116761008048E+00  1.130162140145E+00  1.143724085827E+00  1.157448774857E+00
  1.171338160155E+00  1.185394218077E+00  1.199618948694E+00  1.214014376078E+00
  1.228582548591E+00  1.243325539174E+00  1.258245445644E+00  1.273344390992E+00
  1.288624523684E+00  1.304088017968E+00  1.319737074184E+00  1.335573919074E+00
  1.351600806103E+00  1.367820015776E+00  1.384233855965E+00  1.400844662237E+00
  1.417654798184E+00  1.434666655762E+00  1.451882655631E+00  1.469305247499E+00
  1.486936910469E+00  1.504780153394E+00  1.522837515235E+00  1.541111565418E+00
  1.559604904203E+00  1.578320163053E+00  1.597260005010E+00  1.616427125070E+00
  1.635824250571E+00  1.655454141578E+00  1.675319591277E+00  1.695423426372E+00
  1.715768507488E+00  1.736357729578E+00  1.757194022333E+00  1.778280350601E+00
  1.799619714808E+00  1.821215151386E+00  1.843069733203E+00  1.865186570001E+00
  1.887568808841E+00  1.910219634547E+00  1.933142270162E+00  1.956339977404E+00
  1.979816057133E+00  2.003573849818E+00  2.027616736016E+00  2.051948136848E+00
  2.076571514490E+00  2.101490372664E+00  2.126708257136E+00  2.152228756222E+00
  2.178055501297E+00  2.204192167312E+00  2.230642473320E+00  2.257410183000E+00
  2.284499105196E+00  2.311913094458E+00  2.339656051592E+00  2.367731924211E+00
  2.396144707301E+00  2.424898443789E+00  2.453997225114E+00  2.483445191816E+00
  2.513246534117E+00  2.543405492527E+00  2.573926358437E+00  2.604813474738E+00
  2.636071236435E+00  2.667704091273E+00  2.699716540368E+00  2.732113138852E+00
  2.764898496518E+00  2.798077278477E+00  2.831654205818E+00  2.865634056288E+00
  2.900021664964E+00  2.934821924943E+00  2.970039788043E+00  3.005680265499E+00
  3.041748428685E+00  3.078249409829E+00  3.115188402747E+00  3.152570663580E+00
  3.190401511543E+00  3.228686329682E+00  3.267430565638E+00  3.306639732426E+00
  3.346319409215E+00  3.386475242125E+00  3.427112945031E+00  3.468238300371E+00
  3.509857159976E+00  3.551975445895E+00  3.594599151246E+00  3.637734341061E+00
  3.681387153154E+00  3.725563798992E+00  3.770270564579E+00  3.815513811354E+00
  3.861299977091E+00  3.907635576816E+00  3.954527203737E+00  4.001981530182E+00
  4.050005308545E+00  4.098605372247E+00  4.147788636714E+00  4.197562100355E+00
  4.247932845559E+00  4.298908039706E+00  4.350494936182E+00  4.402700875416E+00
  4.455533285921E+00  4.508999685352E+00  4.563107681576E+00  4.617864973755E+00
  4.673279353440E+00  4.729358705682E+00  4.786111010150E+00  4.843544342272E+00
  4.901666874379E+00  4.960486876872E+00  5.020012719394E+00  5.080252872027E+00
  5.141215906491E+00  5.202910497369E+00  5.265345423337E+00  5.328529568417E+00
  5.392471923238E+00  5.457181586317E+00  5.522667765353E+00  5.588939778537E+00
  5.656007055880E+00  5.723879140550E+00  5.792565690237E+00  5.862076478520E+00
  5.932421396262E+00  6.003610453017E+00  6.075653778453E+00  6.148561623795E+00
  6.222344363280E+00  6.297012495640E+00  6.372576645587E+00  6.449047565334E+00
  6.526436136118E+00  6.604753369752E+00  6.684010410189E+00  6.764218535111E+00
  6.845389157533E+00  6.927533827423E+00  7.010664233352E+00  7.094792204152E+00
  7.179929710602E+00  7.266088867129E+00  7.353281933535E+00  7.441521316737E+00
  7.530819572538E+00  7.621189407409E+00  7.712643680297E+00  7.805195404461E+00
  7.898857749315E+00  7.993644042306E+00  8.089567770814E+00  8.186642584064E+00
  8.284882295073E+00  8.384300882613E+00  8.484912493205E+00  8.586731443123E+00
  8.689772220441E+00  8.794049487086E+00  8.899578080931E+00  9.006373017902E+00
  9.114449494117E+00  9.223822888046E+00  9.334508762703E+00  9.446522867855E+00
  9.559881142270E+00  9.674599715977E+00  9.790694912569E+00  9.908183251519E+00
  1.002708145054E+01  1.014740642794E+01  1.026917530508E+01  1.039240540874E+01
  1.051711427365E+01  1.064331964493E+01  1.077103948067E+01  1.090029195444E+01
  1.103109545789E+01  1.116346860338E+01  1.129743022662E+01  1.143299938934E+01
  1.157019538202E+01  1.170903772660E+01  1.184954617932E+01  1.199174073347E+01
  1.213564162227E+01  1.228126932174E+01  1.242864455360E+01  1.257778828824E+01
  1.272872174770E+01  1.288146640868E+01  1.303604400558E+01  1.319247653365E+01
  1.335078625205E+01  1.351099568708E+01  1.367312763532E+01  1.383720516694E+01
  1.400325162895E+01  1.417129064849E+01  1.434134613628E+01  1.451344228991E+01
  1.468760359739E+01  1.486385484056E+01  1.504222109865E+01  1.522272775183E+01
  1.540540048485E+01  1.559026529067E+01  1.577734847416E+01  1.596667665585E+01
  1.615827677572E+01  1.635217609703E+01  1.654840221019E+01  1.674698303671E+01
  1.694794683315E+01  1.715132219515E+01  1.735713806149E+01  1.756542371823E+01
  1.777620880285E+01  1.798952330849E+01  1.820539758819E+01  1.842386235925E+01
  1.864494870756E+01  1.886868809205E+01  1.909511234915E+01  1.932425369734E+01
  1.955614474171E+01  1.979081847861E+01  2.002830830035E+01  2.026864799996E+01
  2.051187177596E+01  2.075801423727E+01  2.100711040812E+01  2.125919573301E+01
  2.151430608181E+01  2.177247775479E+01  2.203374748785E+01  2.229815245770E+01
  2.256573028719E+01  2.283651905064E+01  2.311055727925E+01  2.338788396660E+01
  2.366853857420E+01  2.395256103709E+01  2.423999176953E+01  2.453087167077E+01
  2.482524213082E+01  2.512314503639E+01  2.542462277682E+01  2.572971825015E+01
  2.603847486915E+01  2.635093656758E+01  2.666714780639E+01  2.698715358007E+01
  2.731099942303E+01  2.763873141610E+01  2.797039619310E+01  2.830604094741E+01
  2.864571343878E+01  2.898946200005E+01  2.933733554405E+01  2.968938357058E+01
  3.004565617342E+01  3.040620404750E+01  3.077107849607E+01  3.114033143803E+01
  3.151401541528E+01  3.189218360027E+01  3.227488980347E+01  3.266218848111E+01
  3.305413474289E+01  3.345078435980E+01  3.385219377212E+01  3.425842009738E+01
  3.466952113855E+01  3.508555539221E+01  3.550658205692E+01  3.593266104160E+01
  3.636385297410E+01  3.680021920979E+01  3.724182184031E+01  3.768872370239E+01
  3.814098838682E+01  3.859868024746E+01  3.906186441043E+01  3.953060678336E+01
  4.000497406476E+01  4.048503375354E+01  4.097085415858E+01  4.146250440848E+01
  4.196005446138E+01  4.246357511492E+01  4.297313801630E+01  4.348881567249E+01
  4.401068146056E+01
</grid-data>
</grid>
<valence-charge total-charge="22" is-unscreening-charge="yes"
 rescaled-to-z-pseudo="no">
<radfunc>
<data npts="457">
  3.545382897320E+01  3.546872230453E+01  3.551323768431E+01  3.558748571066E+01
  3.569638924929E+01  3.583527020885E+01  3.601214838892E+01  3.621451781500E+01
  3.644184050461E+01  3.670663810320E+01  3.700472391660E+01  3.732825343369E+01
  3.771859718677E+01  3.812548959052E+01  3.853115655547E+01  3.899741237833E+01
  3.953295975201E+01  4.003923611812E+01  4.060677275633E+01  4.124253576642E+01
  4.195415234543E+01  4.258362116101E+01  4.327151387459E+01  4.402268208027E+01
  4.484224503528E+01  4.573556866207E+01  4.670823209209E+01  4.749324686212E+01
  4.832858052950E+01  4.921670400696E+01  5.016007073970E+01  5.116108407912E+01
  5.222205763907E+01  5.334516755035E+01  5.453239541893E+01  5.578546068886E+01
  5.710574101927E+01  5.849417921717E+01  5.945789365004E+01  6.045205130046E+01
  6.147646177813E+01  6.253076497909E+01  6.361440945699E+01  6.472662905535E+01
  6.586641777576E+01  6.703250288311E+01  6.822331628082E+01  6.943696422931E+01
  7.067119552903E+01  7.192336834729E+01  7.319041593670E+01  7.446881157265E+01
  7.575453312980E+01  7.704302782261E+01  7.832917775352E+01  7.960726704464E+01
  8.087095147343E+01  8.211323168928E+01  8.332643125404E+01  8.450218092183E+01
  8.563141074800E+01  8.670435178747E+01  8.771054930193E+01  8.863888953335E+01
  8.947764220697E+01  9.021452098592E+01  9.083676409727E+01  9.110080406312E+01
  9.133123726596E+01  9.152638458162E+01  9.168456091111E+01  9.180408059446E+01
  9.188326325647E+01  9.192044008800E+01  9.191396056335E+01  9.186219959088E+01
  9.176356509043E+01  9.161650598651E+01  9.141952060217E+01  9.117116543292E+01
  9.087006427538E+01  9.051491767910E+01  9.010451268426E+01  8.963773280159E+01
  8.911356818414E+01  8.853112593390E+01  8.788964047905E+01  8.718848395095E+01
  8.642717648250E+01  8.560539634295E+01  8.472298981724E+01  8.377998073169E+01
  8.277657952191E+01  8.171319173324E+01  8.059042583989E+01  7.940910026463E+01
  7.817024947898E+01  7.687512906179E+01  7.552521959469E+01  7.412222927434E+01
  7.266809512467E+01  7.116498269788E+01  6.961528416000E+01  6.802161466674E+01
  6.638680694656E+01  6.471390402250E+01  6.300615002043E+01  6.126697903011E+01
  5.950000200665E+01  5.770899172275E+01  5.589786580757E+01  5.407066793430E+01
  5.223154724724E+01  5.038473614786E+01  4.853452658925E+01  4.668524505822E+01
  4.484122645320E+01  4.300678709474E+01  4.118619713115E+01  3.938365262600E+01
  3.760324763467E+01  3.584894659370E+01  3.412455735887E+01  3.243370523465E+01
  3.077980833860E+01  2.916605463897E+01  2.759538099158E+01  2.607045448345E+01
  2.459365636419E+01  2.316706881412E+01  2.179246475832E+01  2.047130089101E+01
  1.920471402411E+01  1.799352081957E+01  1.683822090690E+01  1.573900332851E+01
  1.469575619543E+01  1.370807937766E+01  1.277529999815E+01  1.189649044821E+01
  1.107048859740E+01  1.029591983371E+01  9.571220540892E+00  8.894662601095E+00
  8.264378502147E+00  7.678386630821E+00  7.134616346016E+00  6.630932448359E+00
  6.165158694656E+00  5.735100045489E+00  5.338563380675E+00  4.973376468467E+00
  4.637405028295E+00  4.328567781625E+00  4.044849439059E+00  3.784311622405E+00
  3.545101909598E+00  3.325461424679E+00  3.123730636023E+00  2.938352213855E+00
  2.767872465414E+00  2.610941279652E+00  2.466310483042E+00  2.332829652385E+00
  2.209440746664E+00  2.095176105018E+00  1.989155757480E+00  1.890584250880E+00
  1.798747032388E+00  1.713006451526E+00  1.632797435766E+00  1.557622883979E+00
  1.487048816183E+00  1.420699314661E+00  1.358249469523E+00  1.299411263572E+00
  1.243917516638E+00  1.191518682011E+00  1.141984100771E+00  1.095099946061E+00
  1.050668437196E+00  1.008506894350E+00  9.684468389063E-01  9.303331237104E-01
  8.940230936148E-01  8.593857769952E-01  8.263011087252E-01  7.946591849834E-01
  7.643595501472E-01  7.353105158977E-01  7.074285125359E-01  6.806374723773E-01
  6.548682449665E-01  6.300580437187E-01  6.061499235117E-01  5.830922885495E-01
  5.608384298561E-01  5.393460915542E-01  5.185770650646E-01  4.984968102870E-01
  4.790741027754E-01  4.602807058867E-01  4.420910668514E-01  4.244820357019E-01
  4.074326059861E-01  3.909236761932E-01  3.749378308276E-01  3.594591400775E-01
  3.444729770431E-01  3.299658515102E-01  3.159252592793E-01  3.023395460868E-01
  2.891977851853E-01  2.764896676773E-01  2.642054047335E-01  2.523356408537E-01
  2.408713773659E-01  2.298039053915E-01  2.191247475373E-01  2.088256076104E-01
  1.988983276850E-01  1.893348518869E-01  1.801271962780E-01  1.712674242942E-01
  1.627476271735E-01  1.545599088788E-01  1.466963750346E-01  1.391491254309E-01
  1.319102496781E-01  1.249718256211E-01  1.183259201529E-01  1.119645920907E-01
  1.058798968067E-01  1.000638923265E-01  9.450864663547E-02  8.920624595240E-02
  8.414880375452E-02  7.932847035544E-02  7.473744285884E-02  7.036797532797E-02
  6.621238902855E-02  6.226308261854E-02  5.851254217333E-02  5.495335094902E-02
  5.157819879925E-02  4.837989117388E-02  4.535135763754E-02  4.248565985691E-02
  3.977599901801E-02  3.721572263832E-02  3.479833075049E-02  3.251748144038E-02
  3.036699572910E-02  2.834086179494E-02  2.643323853650E-02  2.463845848376E-02
  2.295103006800E-02  2.136563926601E-02  1.987715063743E-02  1.848060777753E-02
  1.717123321042E-02  1.594442775029E-02  1.479576936018E-02  1.372101153958E-02
  1.271608127348E-02  1.177707657627E-02  1.090026366490E-02  1.008207379546E-02
  9.319099797941E-03  8.608092343200E-03  7.945955975802E-03  7.329744945640E-03
  6.756658870156E-03  6.224038257879E-03  5.729359922605E-03  5.270232316084E-03
  4.844390805515E-03  4.449692920442E-03  4.084113591955E-03  3.745740405322E-03
  3.432768885402E-03  3.143497832417E-03  2.876324723908E-03  2.629741196988E-03
  2.402328623310E-03  2.192753787588E-03  1.999764678936E-03  1.822186402808E-03
  1.658917219960E-03  1.508924717484E-03  1.371242115783E-03  1.244964714160E-03
  1.129246476657E-03  1.023296758807E-03  9.263771750292E-04  8.377986056411E-04
  7.569183417058E-04  6.831373652946E-04  6.158977622002E-04  5.546802636472E-04
  4.990019131506E-04  4.484138543506E-04  4.024992354002E-04  3.608712253026E-04
  3.231711374780E-04  2.890666557851E-04  2.582501582210E-04  2.304371335713E-04
  2.053646863723E-04  1.827901256738E-04  1.624896332469E-04  1.442570070578E-04
  1.279024760251E-04  1.132515822799E-04  1.001441273639E-04  8.843317900970E-05
  7.798413530429E-05  6.867384342602E-05  6.038976997889E-05  5.302922037306E-05
  4.649860514715E-05  4.071275051299E-05  3.559425114446E-05  3.107286327103E-05
  2.708493608095E-05  2.357287961298E-05  2.048466740300E-05  1.777337221593E-05
  1.539673325799E-05  1.331675332045E-05  1.149932435671E-05  9.913880040091E-06
  8.533073891857E-06  7.332481608559E-06  6.290326255732E-06  5.387225032018E-06
  4.605956344715E-06  3.931245974854E-06  3.349571147708E-06  2.848981363315E-06
  2.418934881311E-06  2.050149795155E-06  1.734468672701E-06  1.464735782835E-06
  1.234685971563E-06  1.038844295117E-06  8.724355623196E-07  7.313029832409E-07
  6.118351659274E-07  5.109007474081E-07  4.257899890629E-07  3.541627095529E-07
  2.940019706414E-07  2.435729722099E-07  2.013866524103E-07  1.661675270681E-07
  1.368253390326E-07  1.124301230702E-07  9.219032504149E-08  7.543364545410E-08
  6.159030699389E-08  5.017847332563E-08  4.079157230723E-08  3.308730081924E-08
  2.677811070729E-08  2.162299592105E-08  1.742041987151E-08  1.400223938565E-08
  1.122849749131E-08  8.982971692677E-09  7.169377482350E-09  5.708138663424E-09
  4.533646708739E-09  3.591940949685E-09  2.838749945727E-09  2.237842019364E-09
  1.759639727202E-09  1.380059050850E-09  1.079539402368E-09  8.422352148607E-10
  6.553439924531E-10  5.085492838060E-10  3.935601738956E-10  3.037316101406E-10
  2.337522370798E-10  1.793884507241E-10  1.372751375800E-10  1.047450687298E-10
  7.969020733452E-11  6.044928639153E-11  4.571694742405E-11  3.447052211274E-11
  2.591120730123E-11  1.941694656980E-11  1.450480383807E-11  1.080100948147E-11
  8.017188772709E-12  5.931556104049E-12  4.374085064856E-12  3.214851491180E-12
  2.354900459232E-12  1.719114318325E-12  1.250661893842E-12  9.066928715188E-13
  6.550094224150E-13  4.715021368457E-13  3.381816451950E-13  2.416728665403E-13
  1.720672652295E-13  1.220511545566E-13  8.624607340752E-14  6.071148619025E-14
  4.257126295884E-14  2.973419167166E-14  2.068565266786E-14  1.433293403156E-14
  9.890831465965E-15  6.797373196806E-15  4.651987814364E-15  3.170322396074E-15
  2.151363003268E-15  1.453607322059E-15  9.778699647224E-16  6.549270002356E-16
  4.366760468803E-16  2.898392179871E-16  1.914972567748E-16  1.259364988180E-16
  8.243279593974E-17  5.370109925801E-17  3.481577431105E-17  2.246225328200E-17
  1.442078839940E-17  9.212062432747E-18  5.855044155148E-18  3.702380721000E-18
  1.913202526630E-18  1.199503032632E-18  0.000000000000E+00  0.000000000000E+00
  0.000000000000E+00  0.000000000000E+00  0.000000000000E+00  0.000000000000E+00
  0.000000000000E+00  0.000000000000E+00  0.000000000000E+00  0.000000000000E+00
  0.000000000000E+00  0.000000000000E+00  0.000000000000E+00  0.000000000000E+00
  0.000000000000E+00  0.000000000000E+00  0.000000000000E+00  0.000000000000E+00
  0.000000000000E+00
</data>
</radfunc>
</valence-charge>
<pseudocore-charge matching-radius="0.326864273269"
 number-of-continuous-derivatives="4">
<annotation model-charge-form="Teter function with specified parameters" />
<radfunc>
<data npts="290">
  2.506171597786E+02  2.505339802225E+02  2.502854530556E+02  2.498712394461E+02
  2.492643897088E+02  2.484916998328E+02  2.475095566525E+02  2.463885437245E+02
  2.451326969205E+02  2.436743304882E+02  2.420384150753E+02  2.402697659791E+02
  2.381453777033E+02  2.359419419715E+02  2.337562693303E+02  2.312577891479E+02
  2.284058735067E+02  2.257272710279E+02  2.227445426354E+02  2.194281288786E+02
  2.157469266963E+02  2.125176177510E+02  2.090172202497E+02  2.052286626634E+02
  2.011349956169E+02  1.967197020464E+02  1.919670755564E+02  1.881724812895E+02
  1.841745219403E+02  1.799684559097E+02  1.755504169444E+02  1.709175921652E+02
  1.660684160694E+02  1.610027796350E+02  1.557222529512E+02  1.502303189516E+02
  1.445326148125E+02  1.386371763869E+02  1.346021880976E+02  1.304878668656E+02
  1.262986719101E+02  1.220396846790E+02  1.177166320392E+02  1.133359056971E+02
  1.089045770215E+02  1.044304063852E+02  9.992184608379E+01  9.538803584866E+01
  9.083878994417E+01  8.628457482804E+01  8.173647636983E+01  7.720615566455E+01
  7.270579255560E+01  6.824801609690E+01  6.384582134487E+01  5.951247208043E+01
  5.526138932495E+01  5.110602583401E+01  4.705972713111E+01  4.313558007962E+01
  3.934625048088E+01  3.570381172427E+01  3.221956708913E+01  2.890386889440E+01
  2.576593828900E+01  2.281369004880E+01  2.005356726387E+01  1.874712662552E+01
  1.749039122633E+01  1.628368909075E+01  1.512723212418E+01  1.402111361257E+01
  1.296530626806E+01  1.195966086156E+01  1.100390548024E+01  1.009764544492E+01
  9.240363918710E+00  8.431423233332E+00  7.670066955011E+00  6.955422705473E+00
  6.286505747521E+00  5.662223337373E+00  5.081379838449E+00  4.542682583014E+00
  4.044748459551E+00  3.586111194734E+00  3.165229289661E+00  2.780494560630E+00
  2.430241225405E+00  2.112755466695E+00  1.826285395693E+00  1.569051330120E+00
  1.339256293519E+00  1.135096635665E+00  9.547726682390E-01  7.964992053077E-01
  6.585158951597E-01  5.390972285140E-01  4.365621084728E-01  3.492828697912E-01
  2.756936392694E-01  2.142979353860E-01  1.636754137020E-01  1.224876750664E-01
  8.948306616641E-02  6.350041635524E-02  4.347167078135E-02  2.842339737255E-02
  1.747716390226E-02  9.848800810163E-03  4.846585253798E-03  1.868401570339E-03
  3.979524324713E-04  1.129730786062E-07  3.155365039922E-04  1.054634648617E-03
  1.991066258069E-03  2.954877943858E-03  3.825444062886E-03  4.524355245638E-03
  5.008401884613E-03  5.262792338569E-03  5.294735035657E-03  5.127499395826E-03
  4.795052908619E-03  4.337351309767E-03  3.796336246901E-03  3.212670876796E-03
  2.623219352163E-03  2.059252054449E-03  1.545335652465E-03  1.098846536982E-03
  7.300287541080E-04  4.425039776065E-04  2.341319059210E-04  9.811512845394E-05
  2.424313126445E-05  1.756056822708E-07  1.267522440255E-05  4.871394504956E-05
  9.639384841365E-05  1.456424869189E-04  1.886625464956E-04  2.201350889636E-04
  2.371935378065E-04  2.392007956673E-04  2.273735191076E-04  2.043049647495E-04
  1.734406157679E-04  1.385590048379E-04  1.033041350642E-04  7.080636867688E-05
  4.341659500728E-05  2.256510009348E-05  8.743136168300E-06  1.593007050422E-06
  8.267904032405E-08  2.734372322517E-06  7.873809589939E-06  1.386790960477E-05
  1.932339802324E-05  2.322635272681E-05  2.501207409050E-05  2.456464196661E-05
  2.215481249700E-05  1.833235498088E-05  1.379363484689E-05  9.246706115577E-06
  5.294341209801E-06  2.350725294827E-06  6.008164136640E-07  3.749237309736E-09
  0.000000000000E+00  0.000000000000E+00  0.000000000000E+00  0.000000000000E+00
  0.000000000000E+00  0.000000000000E+00  0.000000000000E+00  0.000000000000E+00
  0.000000000000E+00  0.000000000000E+00  0.000000000000E+00  0.000000000000E+00
  0.000000000000E+00  0.000000000000E+00  0.000000000000E+00  0.000000000000E+00
  0.000000000000E+00  0.000000000000E+00  0.000000000000E+00  0.000000000000E+00
  0.000000000000E+00  0.000000000000E+00  0.000000000000E+00  0.000000000000E+00
  0.000000000000E+00  0.000000000000E+00  0.000000000000E+00  0.000000000000E+00
  0.000000000000E+00  0.000000000000E+00  0.000000000000E+00  0.000000000000E+00
  0.000000000000E+00  0.000000000000E+00  0.000000000000E+00  0.000000000000E+00
  0.000000000000E+00  0.000000000000E+00  0.000000000000E+00  0.000000000000E+00
  0.000000000000E+00  0.000000000000E+00  0.000000000000E+00  0.000000000000E+00
  0.000000000000E+00  0.000000000000E+00  0.000000000000E+00  0.000000000000E+00
  0.000000000000E+00  0.000000000000E+00  0.000000000000E+00  0.000000000000E+00
  0.000000000000E+00  0.000000000000E+00  0.000000000000E+00  0.000000000000E+00
  0.000000000000E+00  0.000000000000E+00  0.000000000000E+00  0.000000000000E+00
  0.000000000000E+00  0.000000000000E+00  0.000000000000E+00  0.000000000000E+00
  0.000000000000E+00  0.000000000000E+00  0.000000000000E+00  0.000000000000E+00
  0.000000000000E+00  0.000000000000E+00  0.000000000000E+00  0.000000000000E+00
  0.000000000000E+00  0.000000000000E+00  0.000000000000E+00  0.000000000000E+00
  0.000000000000E+00  0.000000000000E+00  0.000000000000E+00  0.000000000000E+00
  0.000000000000E+00  0.000000000000E+00  0.000000000000E+00  0.000000000000E+00
  0.000000000000E+00  0.000000000000E+00  0.000000000000E+00  0.000000000000E+00
  0.000000000000E+00  0.000000000000E+00  0.000000000000E+00  0.000000000000E+00
  0.000000000000E+00  0.000000000000E+00  0.000000000000E+00  0.000000000000E+00
  0.000000000000E+00  0.000000000000E+00  0.000000000000E+00  0.000000000000E+00
  0.000000000000E+00  0.000000000000E+00  0.000000000000E+00  0.000000000000E+00
  0.000000000000E+00  0.000000000000E+00  0.000000000000E+00  0.000000000000E+00
  0.000000000000E+00  0.000000000000E+00  0.000000000000E+00  0.000000000000E+00
  0.000000000000E+00  0.000000000000E+00  0.000000000000E+00  0.000000000000E+00
  0.000000000000E+00  0.000000000000E+00
</data>
</radfunc>
</pseudocore-charge>
<semilocal-potentials set="scalar_relativistic">
<slps n="3" l="s" rc="1.21401437608">
<radfunc>
<data npts="290">
 -3.937770625145E+01 -3.937752225401E+01 -3.937697298496E+01 -3.937605919235E+01
 -3.937472410462E+01 -3.937303031510E+01 -3.937088696502E+01 -3.936845304473E+01
 -3.936574129419E+01 -3.936261069366E+01 -3.935912065036E+01 -3.935537075031E+01
 -3.935089481646E+01 -3.934628009532E+01 -3.934172547652E+01 -3.933654058643E+01
 -3.933064145060E+01 -3.932511038664E+01 -3.931895144680E+01 -3.931208972820E+01
 -3.930443742354E+01 -3.929767682461E+01 -3.929028057146E+01 -3.928217446040E+01
 -3.927327065840E+01 -3.926346442071E+01 -3.925263004374E+01 -3.924373947037E+01
 -3.923411048261E+01 -3.922365584388E+01 -3.921227456941E+01 -3.919984966838E+01
 -3.918624554943E+01 -3.917130504595E+01 -3.915484601231E+01 -3.913665743764E+01
 -3.911649502024E+01 -3.909407614265E+01 -3.907771734201E+01 -3.906010261022E+01
 -3.904111215173E+01 -3.902061431819E+01 -3.899846455385E+01 -3.897450427993E+01
 -3.894855972625E+01 -3.892044072375E+01 -3.888993947923E+01 -3.885682936393E+01
 -3.882086375987E+01 -3.878177502472E+01 -3.873927365425E+01 -3.869304774293E+01
 -3.864276286395E+01 -3.858806250687E+01 -3.852856921785E+01 -3.846388657468E+01
 -3.839360208619E+01 -3.831729102145E+01 -3.823452104178E+01 -3.814485733010E+01
 -3.804786770957E+01 -3.794312706097E+01 -3.783022025346E+01 -3.770874287196E+01
 -3.757829930838E+01 -3.743849827432E+01 -3.728894638986E+01 -3.721038860731E+01
 -3.712924103110E+01 -3.704545082762E+01 -3.695896388366E+01 -3.686972473393E+01
 -3.677767653976E+01 -3.668276111996E+01 -3.658491903297E+01 -3.648408970759E+01
 -3.638021161911E+01 -3.627322250733E+01 -3.616305963363E+01 -3.604966007485E+01
 -3.593296105266E+01 -3.581290029800E+01 -3.568941644985E+01 -3.556244948747E+01
 -3.543194119355E+01 -3.529783564339E+01 -3.516007971257E+01 -3.501862359163E+01
 -3.487342129321E+01 -3.472443113384E+01 -3.457161617045E+01 -3.441494457087E+01
 -3.425438989863E+01 -3.408993129513E+01 -3.392155354696E+01 -3.374924703242E+01
 -3.357300754850E+01 -3.339283602729E+01 -3.320873815791E+01 -3.302072393616E+01
 -3.282880716827E+01 -3.263300495730E+01 -3.243333720044E+01 -3.222982612293E+01
 -3.202249587025E+01 -3.181137217429E+01 -3.159648210331E+01 -3.137785389898E+01
 -3.115551689797E+01 -3.092950153099E+01 -3.069983938815E+01 -3.046656333737E+01
 -3.022970768165E+01 -2.998930834093E+01 -2.974540304555E+01 -2.949803153030E+01
 -2.924723572050E+01 -2.899305990462E+01 -2.873555089110E+01 -2.847475815064E+01
 -2.821073394887E+01 -2.794353347802E+01 -2.767321500052E+01 -2.739984002167E+01
 -2.712347351294E+01 -2.684418421261E+01 -2.656204503521E+01 -2.627713362621E+01
 -2.598953310330E+01 -2.569933302944E+01 -2.540663066599E+01 -2.511153255528E+01
 -2.481415648145E+01 -2.451463385468E+01 -2.421311255793E+01 -2.390976028670E+01
 -2.360476840174E+01 -2.329835630332E+01 -2.299077632490E+01 -2.268231913598E+01
 -2.237331963968E+01 -2.206416335191E+01 -2.175529325683E+01 -2.144721714684E+01
 -2.114051547450E+01 -2.083584976620E+01 -2.053397167176E+01 -2.023573274878E+01
 -1.994209510454E+01 -1.965414304270E+01 -1.937309588804E+01 -1.910032219162E+01