<?xml version="1.0" encoding="UTF-8" ?>
<psml version="1.1" energy_unit="hartree" length_unit="bohr"
 uuid="47a622d0-470c-11e8-5ffd-84fdff1ff659"
 xmlns="http://esl.cecam.org/PSML/ns/1.1">
<provenance creator="ONCVPSP-3.3.0+psml-3.3.0-73 (fully-relativistic)"
 date="2018-04-23">
<annotation action="semilocal-pseudopotential-generation"
 action-cont="projectors-generation" />
<input-file name="oncvpsp-input">
<![CDATA[# atsym z nc nv iexc psfile
Ge 32 5 3 4 both
# n l f
1 0 2.0
2 0 2.0
2 1 6.0
3 0 2.0
3 1 6.0
3 2 10.0
4 0 2.0
4 1 2.0
# lmax
2
# l rc ep ncon nbas qcut
0 1.9 0.0 4 7 4.7
1 1.8 0.0 4 7 5.0
2 1.9 0.0 4 7 8.8
# lloc lpopt rc5 dvloc0
4 5 1.75 0.0
# l nproj debl
0 2 3.0
1 2 2.5
2 2 1.5
# icmod fcfact
3 5 1.4
# epsh1 epsh2 depsh
-12.0 12.0 0.02
# rlmax drl
6.0 0.01
 0
]]>
</input-file>
</provenance>
<pseudo-atom-spec atomic-label="Ge" atomic-number="32" z-pseudo="14"
 flavor="Hamann&apos;s oncvpsp" relativity="dirac" spin-dft="no"
 core-corrections="yes">
<annotation pseudo-energy="-79.7389947055" />
<exchange-correlation>
<annotation oncvpsp-xc-code="4" oncvpsp-xc-type="GGA -- Perdew-Burke-Ernzerhof" />
<libxc-info number-of-functionals="2">
<functional name="Perdew, Burke &amp; Ernzerhof (GGA)" type="exchange" id="101" />
<functional name="Perdew, Burke &amp; Ernzerhof (GGA)" type="correlation"
 id="130" />
</libxc-info>
</exchange-correlation>
<valence-configuration total-valence-charge="14">
<shell n="3" l="d" occupation="10" />
<shell n="4" l="s" occupation="2" />
<shell n="4" l="p" occupation="2" />
</valence-configuration>
</pseudo-atom-spec>
<grid npts="457">
<annotation type="sampled from oncvpsp log grid"
 recipe="r(i:1..N) = r1*exp(a*(i-1)) + r=0; resampled"
 recipe-cont="r1: scale; a: step" scale="0.156250000000E-04"
 step="0.119285708653E-01" delta="0.500000000000E-02" rmax="44.0106814606" />
<grid-data>
  0.000000000000E+00  5.025601837514E-03  1.003824527536E-02  1.505896861607E-02
  2.029121445031E-02  2.545292972101E-02  3.080533800935E-02  3.597266729221E-02
  4.101646976877E-02  4.621291924683E-02  5.145031239924E-02  5.660204419540E-02
  6.226962009944E-02  6.769238310509E-02  7.271481084123E-02  7.810987696307E-02
  8.390522932815E-02  8.906182522060E-02  9.453533200659E-02  1.003452262006E-01
  1.065121812926E-01  1.117175309401E-01  1.171772708801E-01  1.229038334035E-01
  1.289102583787E-01  1.352102229449E-01  1.418180726557E-01  1.469850337403E-01
  1.523402464797E-01  1.578905695834E-01  1.636431116494E-01  1.696052402683E-01
  1.757845914596E-01  1.821890794514E-01  1.888269068167E-01  1.957065749787E-01
  2.028368950993E-01  2.102269993637E-01  2.153027200364E-01  2.205009889089E-01
  2.258247647852E-01  2.312770779061E-01  2.368610316751E-01  2.425798044239E-01
  2.484366512219E-01  2.544349057290E-01  2.605779820929E-01  2.668693768925E-01
  2.733126711282E-01  2.799115322600E-01  2.866697162948E-01  2.935910699251E-01
  3.006795327173E-01  3.079391393553E-01  3.153740219359E-01  3.229884123215E-01
  3.307866445486E-01  3.387731572945E-01  3.469524964043E-01  3.553293174774E-01
  3.639083885186E-01  3.726945926510E-01  3.816929308960E-01  3.909085250195E-01
  4.003466204476E-01  4.100125892517E-01  4.199119332066E-01  4.249508764051E-01
  4.300502869219E-01  4.352108903650E-01  4.404334210494E-01  4.457186221020E-01
  4.510672455672E-01  4.564800525140E-01  4.619578131442E-01  4.675013069019E-01
  4.731113225847E-01  4.787886584557E-01  4.845341223572E-01  4.903485318255E-01
  4.962327142074E-01  5.021875067779E-01  5.082137568592E-01  5.143123219415E-01
  5.204840698048E-01  5.267298786425E-01  5.330506371862E-01  5.394472448324E-01
  5.459206117704E-01  5.524716591117E-01  5.591013190210E-01  5.658105348493E-01
  5.726002612674E-01  5.794714644027E-01  5.864251219755E-01  5.934622234392E-01
  6.005837701205E-01  6.077907753619E-01  6.150842646662E-01  6.224652758422E-01
  6.299348591524E-01  6.374940774622E-01  6.451440063917E-01  6.528857344684E-01
  6.607203632820E-01  6.686490076414E-01  6.766727957331E-01  6.847928692819E-01
  6.930103837133E-01  7.013265083179E-01  7.097424264177E-01  7.182593355347E-01
  7.268784475611E-01  7.356009889318E-01  7.444282007990E-01  7.533613392086E-01
  7.624016752791E-01  7.715504953825E-01  7.808091013271E-01  7.901788105430E-01
  7.996609562695E-01  8.092568877447E-01  8.189679703977E-01  8.287955860424E-01
  8.387411330750E-01  8.488060266719E-01  8.589916989919E-01  8.692995993798E-01
  8.797311945724E-01  8.902879689072E-01  9.009714245341E-01  9.117830816285E-01
  9.227244786081E-01  9.337971723514E-01  9.450027384196E-01  9.563427712806E-01
  9.678188845360E-01  9.794327111504E-01  9.911859036842E-01  1.003080134528E+00
  1.015117096143E+00  1.027298501296E+00  1.039626083312E+00  1.052101596312E+00
  1.064726815468E+00  1.077503537253E+00  1.090433579700E+00  1.103518782657E+00
  1.116761008048E+00  1.130162140145E+00  1.143724085827E+00  1.157448774857E+00
  1.171338160155E+00  1.185394218077E+00  1.199618948694E+00  1.214014376078E+00
  1.228582548591E+00  1.243325539174E+00  1.258245445644E+00  1.273344390992E+00
  1.288624523684E+00  1.304088017968E+00  1.319737074184E+00  1.335573919074E+00
  1.351600806103E+00  1.367820015776E+00  1.384233855965E+00  1.400844662237E+00
  1.417654798184E+00  1.434666655762E+00  1.451882655631E+00  1.469305247499E+00
  1.486936910469E+00  1.504780153394E+00  1.522837515235E+00  1.541111565418E+00
  1.559604904203E+00  1.578320163053E+00  1.597260005010E+00  1.616427125070E+00
  1.635824250571E+00  1.655454141578E+00  1.675319591277E+00  1.695423426372E+00
  1.715768507488E+00  1.736357729578E+00  1.757194022333E+00  1.778280350601E+00
  1.799619714808E+00  1.821215151386E+00  1.843069733203E+00  1.865186570001E+00
  1.887568808841E+00  1.910219634547E+00  1.933142270162E+00  1.956339977404E+00
  1.979816057133E+00  2.003573849818E+00  2.027616736016E+00  2.051948136848E+00
  2.076571514490E+00  2.101490372664E+00  2.126708257136E+00  2.152228756222E+00
  2.178055501297E+00  2.204192167312E+00  2.230642473320E+00  2.257410183000E+00
  2.284499105196E+00  2.311913094458E+00  2.339656051592E+00  2.367731924211E+00
  2.396144707301E+00  2.424898443789E+00  2.453997225114E+00  2.483445191816E+00
  2.513246534117E+00  2.543405492527E+00  2.573926358437E+00  2.604813474738E+00
  2.636071236435E+00  2.667704091273E+00  2.699716540368E+00  2.732113138852E+00
  2.764898496518E+00  2.798077278477E+00  2.831654205818E+00  2.865634056288E+00
  2.900021664964E+00  2.934821924943E+00  2.970039788043E+00  3.005680265499E+00
  3.041748428685E+00  3.078249409829E+00  3.115188402747E+00  3.152570663580E+00
  3.190401511543E+00  3.228686329682E+00  3.267430565638E+00  3.306639732426E+00
  3.346319409215E+00  3.386475242125E+00  3.427112945031E+00  3.468238300371E+00
  3.509857159976E+00  3.551975445895E+00  3.594599151246E+00  3.637734341061E+00
  3.681387153154E+00  3.725563798992E+00  3.770270564579E+00  3.815513811354E+00
  3.861299977091E+00  3.907635576816E+00  3.954527203737E+00  4.001981530182E+00
  4.050005308545E+00  4.098605372247E+00  4.147788636714E+00  4.197562100355E+00
  4.247932845559E+00  4.298908039706E+00  4.350494936182E+00  4.402700875416E+00
  4.455533285921E+00  4.508999685352E+00  4.563107681576E+00  4.617864973755E+00
  4.673279353440E+00  4.729358705682E+00  4.786111010150E+00  4.843544342272E+00
  4.901666874379E+00  4.960486876872E+00  5.020012719394E+00  5.080252872027E+00
  5.141215906491E+00  5.202910497369E+00  5.265345423337E+00  5.328529568417E+00
  5.392471923238E+00  5.457181586317E+00  5.522667765353E+00  5.588939778537E+00
  5.656007055880E+00  5.723879140550E+00  5.792565690237E+00  5.862076478520E+00
  5.932421396262E+00  6.003610453017E+00  6.075653778453E+00  6.148561623795E+00
  6.222344363280E+00  6.297012495640E+00  6.372576645587E+00  6.449047565334E+00
  6.526436136118E+00  6.604753369752E+00  6.684010410189E+00  6.764218535111E+00
  6.845389157533E+00  6.927533827423E+00  7.010664233352E+00  7.094792204152E+00
  7.179929710602E+00  7.266088867129E+00  7.353281933535E+00  7.441521316737E+00
  7.530819572538E+00  7.621189407409E+00  7.712643680297E+00  7.805195404461E+00
  7.898857749315E+00  7.993644042306E+00  8.089567770814E+00  8.186642584064E+00
  8.284882295073E+00  8.384300882613E+00  8.484912493205E+00  8.586731443123E+00
  8.689772220441E+00  8.794049487086E+00  8.899578080931E+00  9.006373017902E+00
  9.114449494117E+00  9.223822888046E+00  9.334508762703E+00  9.446522867855E+00
  9.559881142270E+00  9.674599715977E+00  9.790694912569E+00  9.908183251519E+00
  1.002708145054E+01  1.014740642794E+01  1.026917530508E+01  1.039240540874E+01
  1.051711427365E+01  1.064331964493E+01  1.077103948067E+01  1.090029195444E+01
  1.103109545789E+01  1.116346860338E+01  1.129743022662E+01  1.143299938934E+01
  1.157019538202E+01  1.170903772660E+01  1.184954617932E+01  1.199174073347E+01
  1.213564162227E+01  1.228126932174E+01  1.242864455360E+01  1.257778828824E+01
  1.272872174770E+01  1.288146640868E+01  1.303604400558E+01  1.319247653365E+01
  1.335078625205E+01  1.351099568708E+01  1.367312763532E+01  1.383720516694E+01
  1.400325162895E+01  1.417129064849E+01  1.434134613628E+01  1.451344228991E+01
  1.468760359739E+01  1.486385484056E+01  1.504222109865E+01  1.522272775183E+01
  1.540540048485E+01  1.559026529067E+01  1.577734847416E+01  1.596667665585E+01
  1.615827677572E+01  1.635217609703E+01  1.654840221019E+01  1.674698303671E+01
  1.694794683315E+01  1.715132219515E+01  1.735713806149E+01  1.756542371823E+01
  1.777620880285E+01  1.798952330849E+01  1.820539758819E+01  1.842386235925E+01
  1.864494870756E+01  1.886868809205E+01  1.909511234915E+01  1.932425369734E+01
  1.955614474171E+01  1.979081847861E+01  2.002830830035E+01  2.026864799996E+01
  2.051187177596E+01  2.075801423727E+01  2.100711040812E+01  2.125919573301E+01
  2.151430608181E+01  2.177247775479E+01  2.203374748785E+01  2.229815245770E+01
  2.256573028719E+01  2.283651905064E+01  2.311055727925E+01  2.338788396660E+01
  2.366853857420E+01  2.395256103709E+01  2.423999176953E+01  2.453087167077E+01
  2.482524213082E+01  2.512314503639E+01  2.542462277682E+01  2.572971825015E+01
  2.603847486915E+01  2.635093656758E+01  2.666714780639E+01  2.698715358007E+01
  2.731099942303E+01  2.763873141610E+01  2.797039619310E+01  2.830604094741E+01
  2.864571343878E+01  2.898946200005E+01  2.933733554405E+01  2.968938357058E+01
  3.004565617342E+01  3.040620404750E+01  3.077107849607E+01  3.114033143803E+01
  3.151401541528E+01  3.189218360027E+01  3.227488980347E+01  3.266218848111E+01
  3.305413474289E+01  3.345078435980E+01  3.385219377212E+01  3.425842009738E+01
  3.466952113855E+01  3.508555539221E+01  3.550658205692E+01  3.593266104160E+01
  3.636385297410E+01  3.680021920979E+01  3.724182184031E+01  3.768872370239E+01
  3.814098838682E+01  3.859868024746E+01  3.906186441043E+01  3.953060678336E+01
  4.000497406476E+01  4.048503375354E+01  4.097085415858E+01  4.146250440848E+01
  4.196005446138E+01  4.246357511492E+01  4.297313801630E+01  4.348881567249E+01
  4.401068146056E+01
</grid-data>
</grid>
<valence-charge total-charge="14" is-unscreening-charge="yes"
 rescaled-to-z-pseudo="no">
<radfunc>
<data npts="457">
  1.619145732000E-03  1.624295393247E-03  1.645460301664E-03  1.700015125704E-03
  1.823599975636E-03  2.056407499104E-03  2.475049664585E-03  3.122010325769E-03
  4.062764533498E-03  5.444476424413E-03  7.368497212526E-03  9.899302623730E-03
  1.356717275010E-02  1.810742375987E-02  2.336432179141E-02  3.030965216191E-02
  3.948312421722E-02  4.933531717565E-02  6.174880280072E-02  7.738123317501E-02
  9.705471387576E-02  1.163843118006E-01  1.395901823568E-01  1.674317628186E-01
  2.008109206199E-01  2.407965303910E-01  2.886525762898E-01  3.305969791768E-01
  3.785260326820E-01  4.332563814870E-01  4.957071182402E-01  5.669104814832E-01
  6.480231364533E-01  7.403379196664E-01  8.452958735788E-01  9.644983299016E-01
  1.099718717212E+00  1.252913668256E+00  1.366082883385E+00  1.488878399295E+00
  1.622027059968E+00  1.766296690726E+00  1.922496195259E+00  2.091475211189E+00
  2.274123240213E+00  2.471368159377E+00  2.684174010146E+00  2.913537951879E+00
  3.160486256239E+00  3.426069209220E+00  3.711354778243E+00  4.017420893510E+00
  4.345346186002E+00  4.696199019788E+00  5.071024654368E+00  5.470830374382E+00
  5.896568430171E+00  6.349116644410E+00  6.829256558512E+00  7.337649019072E+00
  7.874807140678E+00  8.441066628366E+00  9.036553502446E+00  9.661149341777E+00
  1.031445425026E+01  1.099574785646E+01  1.170394877893E+01  1.206769263488E+01
  1.243757312996E+01  1.281333503795E+01  1.319469278870E+01  1.358132921709E+01
  1.397289434875E+01  1.436900423300E+01  1.476923983435E+01  1.517314599467E+01
  1.558023047894E+01  1.598996311841E+01  1.640177506548E+01  1.681505817571E+01
  1.722916453279E+01  1.764340613305E+01  1.805705474664E+01  1.846934197293E+01
  1.887945950812E+01  1.928655964315E+01  1.968975601031E+01  2.008812459663E+01
  2.048070504205E+01  2.086650223985E+01  2.124448825606E+01  2.161360458380E+01
  2.197276474706E+01  2.232085726719E+01  2.265674900319E+01  2.297928887525E+01
  2.328731197789E+01  2.357964408676E+01  2.385510655952E+01  2.411252162780E+01
  2.435071807328E+01  2.456853727644E+01  2.476483962188E+01  2.493851123906E+01
  2.508847105180E+01  2.521367810433E+01  2.531313912559E+01  2.538591628749E+01
  2.543113510636E+01  2.544799243082E+01  2.543576445268E+01  2.539381467138E+01
  2.532160173685E+01  2.521868708950E+01  2.508474231155E+01  2.491955609904E+01
  2.472304076022E+01  2.449523814328E+01  2.423632489467E+01  2.394661694850E+01
  2.362657314880E+01  2.327679790817E+01  2.289804281114E+01  2.249120707551E+01
  2.205733679334E+01  2.159762288221E+01  2.111339768936E+01  2.060613020451E+01
  2.007741985281E+01  1.952898885660E+01  1.896267317343E+01  1.838041203877E+01
  1.778423616310E+01  1.717625465615E+01  1.655864077419E+01  1.593361661000E+01
  1.530343686802E+01  1.467037188996E+01  1.403669011687E+01  1.340464019296E+01
  1.277643293279E+01  1.215422338714E+01  1.154009325235E+01  1.093603387342E+01
  1.034393009218E+01  9.765545187420E+00  9.202507144122E+00  8.656296474244E+00
  8.128235790465E+00  7.619481308650E+00  7.131016423683E+00  6.663647467838E+00
  6.218001721544E+00  5.794527704000E+00  5.393497726817E+00  5.015012648621E+00
  4.659008723794E+00  4.325266395381E+00  4.013420842146E+00  3.722974053972E+00
  3.453308179566E+00  3.203699866840E+00  2.973335300144E+00  2.761325630574E+00
  2.566722495998E+00  2.388533336469E+00  2.225736227871E+00  2.077293981526E+00
  1.942167288893E+00  1.819326727472E+00  1.707763484852E+00  1.606498701067E+00
  1.514591373217E+00  1.431144809020E+00  1.355311655869E+00  1.286297567683E+00
  1.223363602091E+00  1.165827464448E+00  1.113063732260E+00  1.064503203656E+00
  1.019631516898E+00  9.779871850242E-01  9.391591815531E-01  9.027842007882E-01
  8.685437008562E-01  8.361608205128E-01  8.053972431060E-01  7.760500640336E-01
  7.479487024541E-01  7.209518846032E-01  6.949446652794E-01  6.698353348442E-01
  6.455523031545E-01  6.220413958082E-01  5.992627407939E-01  5.771852274136E-01
  5.557806585978E-01  5.350227621927E-01  5.148878033481E-01  4.953540020116E-01
  4.764014119736E-01  4.580117420377E-01  4.401681934265E-01  4.228553071821E-01
  4.060588213282E-01  3.897655376344E-01  3.739631977741E-01  3.586403686393E-01
  3.437863365503E-01  3.293910100734E-01  3.154448311443E-01  3.019386941734E-01
  2.888638728014E-01  2.762119539645E-01  2.639747788906E-01  2.521443907195E-01
  2.407129883316E-01  2.296728860479E-01  2.190164788310E-01  2.087362126253E-01
  1.988245594784E-01  1.892739970925E-01  1.800769924465E-01  1.712259891756E-01
  1.627133983561E-01  1.545315923865E-01  1.466729016574E-01  1.391296137127E-01
  1.318939746222E-01  1.249581922951E-01  1.183144414797E-01  1.119548702094E-01
  1.058716074676E-01  1.000567718607E-01  9.450248110148E-02  8.920086212023E-02
  8.414406163570E-02  7.932425703063E-02  7.473366739133E-02  7.036456458386E-02
  6.620928425143E-02  6.226023663052E-02  5.850991709466E-02  5.495091634551E-02
  5.157593018199E-02  4.837776878779E-02  4.534936548615E-02  4.248378492080E-02
  3.977423062909E-02  3.721405198147E-02  3.479675046792E-02  3.251598531856E-02
  3.036557845210E-02  2.833951875074E-02  2.643196566566E-02  2.463725216156E-02
  2.294988701318E-02  2.136455647040E-02  1.987612531193E-02  1.847963731095E-02
  1.717031513819E-02  1.594355973090E-02  1.479494915750E-02  1.372023700967E-02
  1.271535035485E-02  1.177638728266E-02  1.089961407997E-02  1.008146206891E-02
  9.318524142648E-03  8.607551033030E-03  7.945447343974E-03  7.329267383401E-03
  6.756210825690E-03  6.223618235328E-03  5.728966481164E-03  5.269864069119E-03
  4.844046419665E-03  4.449371114701E-03  4.083813136710E-03  3.745460121352E-03
  3.432507642828E-03  3.143254549610E-03  2.876098366357E-03  2.629530776128E-03
  2.402133195327E-03  2.192572452193E-03  1.999596578118E-03  1.822030719580E-03
  1.658773177088E-03  1.508791576219E-03  1.371119174586E-03  1.244851307436E-03
  1.129141973500E-03  1.023200561746E-03  9.262887187931E-04  8.377173559439E-04
  7.568437940417E-04  6.830690437572E-04  6.158352183214E-04  5.546230752578E-04
  4.989496832642E-04  4.483662100709E-04  4.024558268525E-04  3.608317245899E-04
  3.231352376622E-04  2.890340698936E-04  2.582206182788E-04  2.304103896586E-04
  2.053405057086E-04  1.827682917283E-04  1.624699448746E-04  1.442392776624E-04
  1.278865327489E-04  1.132372652201E-04  1.001312888162E-04  8.842168273870E-05
  7.797385584122E-05  6.866466539352E-05  6.038158744311E-05  5.302193622289E-05
  4.649213050057E-05  4.070700415034E-05  3.558915896850E-05  3.106835779339E-05
  2.708095593483E-05  2.356936909157E-05  2.048157602314E-05  1.777065430664E-05
  1.539434757309E-05  1.331466267481E-05  1.149749528529E-05  9.912282479172E-06
  8.531680881548E-06  7.331269015895E-06  6.289272517427E-06  5.386310916059E-06
  4.605164729895E-06  3.930561647362E-06  3.348980613884E-06  2.848472677668E-06
  2.418497488923E-06  2.049774387595E-06  1.734147056585E-06  1.464460760211E-06
  1.234451231289E-06  1.038644314462E-06  8.722655180198E-07  7.311586712947E-07
  6.117129294334E-07  5.107974117903E-07  4.257028040612E-07  3.540892973925E-07
  2.939402798306E-07  2.435212364506E-07  2.013433541409E-07  1.661313651923E-07
  1.367952004200E-07  1.124050574473E-07  9.216952292271E-08  7.541641878934E-08
  6.157607223984E-08  5.016673667218E-08  4.078191681556E-08  3.307937525138E-08
  2.677161984813E-08  2.161769221399E-08  1.741609620693E-08  1.399872289891E-08
  1.122564424200E-08  8.980662111369E-09  7.167512483988E-09  5.706636338039E-09
  4.532439511000E-09  3.590973318184E-09  2.837976291514E-09  2.237225030890E-09
  1.759148945654E-09  1.379669675918E-09  1.079231293843E-09  8.419920602037E-10
  6.551526146307E-10  5.083990673328E-10  3.934425902157E-10  3.036398262486E-10
  2.336807936942E-10  1.793329984038E-10  1.372322209753E-10  1.047119506978E-10
  7.966472597395E-11  6.042973917979E-11  4.570199759887E-11  3.445912325653E-11
  2.590254277415E-11  1.941038101803E-11  1.449984449084E-11  1.079727535823E-11
  8.014386261646E-12  5.929459656142E-12  4.372521981480E-12  3.213689976775E-12
  2.354040269448E-12  1.718479464414E-12  1.250194970540E-12  9.063506623107E-13
  6.547595063551E-13  4.713202778961E-13  3.380497907706E-13  2.415776186214E-13
  1.719987167144E-13  1.220020068625E-13  8.621096983526E-14  6.068651019259E-14
  4.255356195943E-14  2.972169610542E-14  2.067686695777E-14  1.432678169805E-14
  9.886540806995E-15  6.794393253185E-15  4.649926849634E-15  3.168903045061E-15
  2.150389709777E-15  1.452942798582E-15  9.774182473254E-16  6.546213037216E-16
  4.364700985580E-16  2.897011011040E-16  1.914050564695E-16  1.258752368330E-16
  8.239228254830E-17  5.367443494871E-17  3.479830960542E-17  2.245087003927E-17
  1.441340564396E-17  9.207298206782E-18  5.851985287826E-18  3.700426853612E-18
  1.912453148235E-18  1.199027405122E-18  0.000000000000E+00  0.000000000000E+00
  0.000000000000E+00  0.000000000000E+00  0.000000000000E+00  0.000000000000E+00
  0.000000000000E+00  0.000000000000E+00  0.000000000000E+00  0.000000000000E+00
  0.000000000000E+00  0.000000000000E+00  0.000000000000E+00  0.000000000000E+00
  0.000000000000E+00  0.000000000000E+00  0.000000000000E+00  0.000000000000E+00
  0.000000000000E+00
</data>
</radfunc>
</valence-charge>
<pseudocore-charge matching-radius="0.684792869282"
 number-of-continuous-derivatives="4">
<annotation model-charge-form="Teter function with specified parameters" />
<radfunc>
<data npts="290">
  1.287211646567E+02  1.287099896314E+02  1.286765851575E+02  1.286208597997E+02
  1.285391030729E+02  1.284348043761E+02  1.283019091601E+02  1.281497768105E+02
  1.279787765580E+02  1.277794384655E+02  1.275548474593E+02  1.273108492989E+02
  1.270161261873E+02  1.267085085440E+02  1.264014007549E+02  1.260478968766E+02
  1.256411410505E+02  1.252558904311E+02  1.248231569257E+02  1.243372767645E+02
  1.237919612585E+02  1.233082566870E+02  1.227781630139E+02  1.221974558104E+02
  1.215615730233E+02  1.208655981278E+02  1.201042448395E+02  1.194869297139E+02
  1.188271222573E+02  1.181221604799E+02  1.173692560697E+02  1.165654949728E+02
  1.157078393179E+02  1.147931309370E+02  1.138180967612E+02  1.127793564017E+02
  1.116734322649E+02  1.104967625786E+02  1.096712228556E+02  1.088115403404E+02
  1.079166204763E+02  1.069853658220E+02  1.060166799935E+02  1.050094720702E+02
  1.039626614983E+02  1.028751835209E+02  1.017459951698E+02  1.005740818471E+02
  9.935846452960E+01  9.809820762131E+01  9.679242748328E+01  9.544030166081E+01
  9.404107882800E+01  9.259408946239E+01  9.109875725662E+01  8.955461126603E+01
  8.796129878180E+01  8.631859890848E+01  8.462643681171E+01  8.288489858741E+01
  8.109424668705E+01  7.925493581428E+01  7.736762918751E+01  7.543321503897E+01
  7.345282319520E+01  7.142784155561E+01  6.935993225540E+01  6.831047799149E+01
  6.725104726693E+01  6.618193178784E+01  6.510344315956E+01  6.401591327943E+01
  6.291969470309E+01  6.181516098133E+01  6.070270696424E+01  5.958274906932E+01
  5.845572551005E+01  5.732209648134E+01  5.618234429815E+01  5.503697348348E+01
  5.388651080178E+01  5.273150523389E+01  5.157252788939E+01  5.041017185233E+01
  4.924505195616E+01  4.807780448390E+01  4.690908678922E+01  4.573957683463E+01
  4.456997264269E+01  4.340099165631E+01  4.223337000462E+01  4.106786167071E+01
  3.990523755799E+01  3.874628445212E+01  3.759180387577E+01  3.644261083378E+01
  3.529953244689E+01  3.416340647228E+01  3.303507971017E+01  3.191540629590E+01
  3.080524587776E+01  2.970546168135E+01  2.861691846234E+01  2.754048034972E+01
  2.647700858321E+01  2.542735914879E+01  2.439238031765E+01  2.337291009479E+01
  2.236977358454E+01  2.138378028148E+01  2.041572129620E+01  1.946636652680E+01
  1.853646178795E+01  1.762672591085E+01  1.673784782819E+01  1.587048366004E+01
  1.502525381711E+01  1.420274013944E+01  1.340348308943E+01  1.262797901915E+01
  1.187667753277E+01  1.114997896576E+01  1.044823200317E+01  9.771731459643E+00
  9.120716244391E+00  8.495367534199E+00  7.895807177555E+00  7.322096352583E+00
  6.774234500848E+00  6.252158558133E+00  5.755742502104E+00  5.284797235205E+00
  4.839070819244E+00  4.418249075926E+00  4.021956565004E+00  3.649757948839E+00
  3.301159748887E+00  2.975612496106E+00  2.672513273376E+00  2.391208643918E+00
  2.130997955292E+00  1.891137004019E+00  1.670842041115E+00  1.469294094064E+00
  1.285643575923E+00  1.119015147503E+00  9.685127939710E-01  8.332250728406E-01
  7.122304862557E-01  6.046029268850E-01  5.094171436179E-01  4.257541707999E-01
  3.527066629891E-01  2.893840762801E-01  2.349176371963E-01  1.884650410765E-01
  1.492148238264E-01  1.163903539141E-01  8.925339557560E-02  6.710719936290E-02
  4.929908237039E-02  3.522246766949E-02  2.431836056371E-02  1.607624813393E-02
  1.003441802228E-02  5.779702321822E-03  2.946662590786E-03  1.216242161584E-03
  3.139218164170E-04  7.424287849852E-06  1.040216456302E-04  4.475071828588E-04
  9.148996606350E-04  1.412952477542E-03  1.874543298252E-03  2.255020746126E-03
  2.528583832439E-03  2.684766815267E-03  2.725097178076E-03  2.659987488788E-03
  2.505913217453E-03  2.282918402517E-03  2.012479680489E-03  1.715747012670E-03
  1.412166887386E-03  1.118481313776E-03  8.480840367853E-04  6.107045704114E-04
  4.123813161407E-04  2.556776018823E-04  1.400892626308E-04  6.258960901454E-05
  1.825739949737E-05  9.357240886188E-07  3.874366004753E-06  2.031494515546E-05
  4.398655479550E-05  6.948916949996E-05  9.255224375266E-05  1.101660112069E-04
  1.205924107793E-04  1.232707260704E-04  1.186394338579E-04  1.079000449657E-04
  9.275067241715E-05  7.511664066200E-05  5.690280420901E-05  3.978770022836E-05
  2.507369770919E-05  1.360052109653E-05  5.722578496534E-06  1.344076842773E-06
  5.623974875401E-10  9.717677411226E-07  3.408787687368E-06  6.458751621014E-06
  9.372193568957E-06  1.158191904343E-05  1.274683007064E-05  1.275928089137E-05
  1.171943844458E-05  9.884196317235E-06  7.600941910583E-06  5.237596159863E-06
  3.119757468943E-06  1.483655235886E-06  4.503434372202E-07  2.269531229470E-08
  0.000000000000E+00  0.000000000000E+00  0.000000000000E+00  0.000000000000E+00
  0.000000000000E+00  0.000000000000E+00  0.000000000000E+00  0.000000000000E+00
  0.000000000000E+00  0.000000000000E+00  0.000000000000E+00  0.000000000000E+00
  0.000000000000E+00  0.000000000000E+00  0.000000000000E+00  0.000000000000E+00
  0.000000000000E+00  0.000000000000E+00  0.000000000000E+00  0.000000000000E+00
  0.000000000000E+00  0.000000000000E+00  0.000000000000E+00  0.000000000000E+00
  0.000000000000E+00  0.000000000000E+00  0.000000000000E+00  0.000000000000E+00
  0.000000000000E+00  0.000000000000E+00  0.000000000000E+00  0.000000000000E+00
  0.000000000000E+00  0.000000000000E+00  0.000000000000E+00  0.000000000000E+00
  0.000000000000E+00  0.000000000000E+00  0.000000000000E+00  0.000000000000E+00
  0.000000000000E+00  0.000000000000E+00  0.000000000000E+00  0.000000000000E+00
  0.000000000000E+00  0.000000000000E+00  0.000000000000E+00  0.000000000000E+00
  0.000000000000E+00  0.000000000000E+00  0.000000000000E+00  0.000000000000E+00
  0.000000000000E+00  0.000000000000E+00  0.000000000000E+00  0.000000000000E+00
  0.000000000000E+00  0.000000000000E+00  0.000000000000E+00  0.000000000000E+00
  0.000000000000E+00  0.000000000000E+00
</data>
</radfunc>
</pseudocore-charge>
<semilocal-potentials set="scalar_relativistic">
<slps n="4" l="s" rc="1.91021963455">
<radfunc>
<data npts="290">
  7.035690379378E+01  7.029479889969E+01  7.010964849430E+01  6.980242349434E+01
  6.935536276745E+01  6.879130169204E+01  6.808257075434E+01  6.728467146898E+01
  6.640447111885E+01  6.539999827625E+01  6.429519344397E+01  6.312605092883E+01
  6.175528549281E+01  6.037070463724E+01  5.903319202121E+01  5.754622460760E+01
  5.590115562570E+01  5.440437639179E+01  5.279000692324E+01  5.105648321449E+01
  4.920381962937E+01  4.763706839807E+01  4.599705048643E+01  4.428649551961E+01
  4.250904381438E+01  4.066926054816E+01  3.877262666730E+01  3.731663875130E+01
  3.583522486009E+01  3.433161582961E+01  3.280925822522E+01  3.127178566321E+01
  2.972298640204E+01  2.816676779688E+01  2.660711832350E+01  2.504806796724E+01
  2.349364783527E+01  2.194784988167E+01  2.092404499071E+01  1.990694634226E+01
  1.889765877821E+01  1.789725517615E+01  1.690677238446E+01  1.592720750414E+01
  1.495951454578E+01  1.400460148410E+01  1.306332772720E+01  1.213650201194E+01
  1.122488073112E+01  1.032916669274E+01  9.450008306377E+00  8.587999186769E+00
  7.743678159946E+00  6.917529653470E+00  6.109984448372E+00  5.321420767408E+00
  4.552165671552E+00  3.802496734613E+00  3.072643964261E+00  2.362791936743E+00
  1.673082112058E+00  1.003615296313E+00  3.544542184391E-01 -2.743738107320E-01
 -8.828741878171E-01 -1.471082283980E+00 -2.039060717485E+00 -2.315490164821E+00
 -2.586896657733E+00 -2.853294495329E+00 -3.114699185348E+00 -3.371127366351E+00
 -3.622596731712E+00 -3.869125955549E+00 -4.110734620807E+00 -4.347443149669E+00
 -4.579272736516E+00 -4.806245283608E+00 -5.028383339835E+00 -5.245710042557E+00
 -5.458249063119E+00 -5.666024556032E+00 -5.869061112343E+00 -6.067383717449E+00
 -6.261017713761E+00 -6.449988768605E+00 -6.634322847831E+00 -6.814046195540E+00
 -6.989185320462E+00 -7.159766989473E+00 -7.325818228756E+00 -7.487366333144E+00
 -7.644438884154E+00 -7.797063777175E+00 -7.945269258270E+00 -8.089083970950E+00
 -8.228537013198E+00 -8.363658004893E+00 -8.494477165632E+00 -8.621025402771E+00
 -8.743334409249E+00 -8.861436770562E+00 -8.975366079908E+00 -9.085157060296E+00
 -9.190845692014E+00 -9.292469343601E+00 -9.390066904127E+00 -9.483678914303E+00
 -9.573347693717E+00 -9.659117461305E+00 -9.741034446063E+00 -9.819146984962E+00
 -9.893505605136E+00 -9.964163087540E+00 -1.003117450952E+01 -1.009459726406E+01
 -1.015449105393E+01 -1.021091785910E+01 -1.026394187647E+01 -1.031362943116E+01
 -1.036004885870E+01 -1.040327035789E+01 -1.044336581379E+01 -1.048040859022E+01
 -1.051447329077E+01 -1.054563548657E+01 -1.057397140857E+01 -1.059955760090E+01
 -1.062247053100E+01 -1.064278615119E+01 -1.066057940531E+01 -1.067592367322E+01
 -1.068889014565E+01 -1.069954712160E+01 -1.070795922182E+01 -1.071418651333E+01
 -1.071828354399E+01 -1.072029829103E+01 -1.072027103559E+01 -1.071823318606E+01
 -1.071420608647E+01 -1.070819986306E+01 -1.070021238110E+01 -1.069022840374E+01
 -1.067821906269E+01 -1.066414176361E+01 -1.064794065220E+01 -1.062954775662E+01
 -1.060888489284E+01 -1.058586637113E+01 -1.056040247468E+01 -1.053240360055E+01
 -1.050178486947E+01 -1.046847093564E+01 -1.043240067471E+01 -1.039353140734E+01