<?xml version="1.0" encoding="UTF-8" ?>
<psml version="1.1" energy_unit="hartree" length_unit="bohr"
 uuid="677bf240-471d-11e8-482d-fb2c7edc90c9"
 xmlns="http://esl.cecam.org/PSML/ns/1.1">
<provenance creator="ONCVPSP-3.3.0+psml-3.3.0-73 (fully-relativistic)"
 date="2018-04-23">
<annotation action="semilocal-pseudopotential-generation"
 action-cont="projectors-generation" />
<input-file name="oncvpsp-input">
<![CDATA[# atsym z nc nv iexc psfile
Xe 54 9 2 4 both
# n l f
1 0 2.0
2 0 2.0
2 1 6.0
3 0 2.0
3 1 6.0
3 2 10.0
4 0 2.0
4 1 6.0
4 2 10.0
5 0 2.0
5 1 6.0
# lmax
2
# l rc ep ncon nbas qcut
0 2.0 0.0 4 7 4.0
1 1.8 0.0 4 8 6.0
2 2.2 0.1 4 7 5.5
# lloc lpopt rc5 dvloc0
4 5 1.8 0.0
# l nproj debl
0 2 4.0
1 2 3.0
2 2 4.0
# icmod fcfact
3 8 1.23
# epsh1 epsh2 depsh
-12.0 12.0 0.02
# rlmax drl
6.0 0.01
 0
]]>
</input-file>
</provenance>
<pseudo-atom-spec atomic-label="Xe" atomic-number="54" z-pseudo="8"
 flavor="Hamann&apos;s oncvpsp" relativity="dirac" spin-dft="no"
 core-corrections="yes">
<annotation pseudo-energy="-15.7284656461" />
<exchange-correlation>
<annotation oncvpsp-xc-code="4" oncvpsp-xc-type="GGA -- Perdew-Burke-Ernzerhof" />
<libxc-info number-of-functionals="2">
<functional name="Perdew, Burke &amp; Ernzerhof (GGA)" type="exchange" id="101" />
<functional name="Perdew, Burke &amp; Ernzerhof (GGA)" type="correlation"
 id="130" />
</libxc-info>
</exchange-correlation>
<valence-configuration total-valence-charge="8">
<shell n="5" l="s" occupation="2" />
<shell n="5" l="p" occupation="6" />
</valence-configuration>
</pseudo-atom-spec>
<grid npts="457">
<annotation type="sampled from oncvpsp log grid"
 recipe="r(i:1..N) = r1*exp(a*(i-1)) + r=0; resampled"
 recipe-cont="r1: scale; a: step" scale="0.925925925926E-05"
 step="0.119285708653E-01" delta="0.500000000000E-02" rmax="44.0815505142" />
<grid-data>
  0.000000000000E+00  5.033694410375E-03  1.005440955457E-02  1.508321761245E-02
  2.032388877205E-02  2.549391579491E-02  3.085494290253E-02  3.603059297763E-02
  4.108251733498E-02  4.628733449663E-02  5.153316126297E-02  5.669318873521E-02
  6.236989096331E-02  6.780138607829E-02  7.283190127614E-02  7.823565490787E-02
  8.404033935153E-02  8.920523875257E-02  9.468755935905E-02  1.005068090479E-01
  1.066836945990E-01  1.118974262617E-01  1.173659578539E-01  1.231017416857E-01
  1.291178386233E-01  1.354279478297E-01  1.420464379586E-01  1.472217192426E-01
  1.525855553172E-01  1.581448159363E-01  1.639066211448E-01  1.698783503969E-01
  1.760676520084E-01  1.824824529513E-01  1.891309690069E-01  1.960217152880E-01
  2.031635171449E-01  2.105655214681E-01  2.156494154184E-01  2.208560549043E-01
  2.261884034939E-01  2.316494963079E-01  2.372424417467E-01  2.429704232603E-01
  2.488367011595E-01  2.548446144723E-01  2.609975828441E-01  2.672991084843E-01
  2.737527781595E-01  2.803622652354E-01  2.871313317672E-01  2.940638306414E-01
  3.011637077684E-01  3.084350043288E-01  3.158818590733E-01  3.235085106788E-01
  3.313193001606E-01  3.393186733437E-01  3.475111833929E-01  3.559014934047E-01
  3.644943790615E-01  3.732947313495E-01  3.823075593432E-01  3.915379930560E-01
  4.009912863604E-01  4.106728199783E-01  4.205881045438E-01  4.256351617983E-01
  4.307427837399E-01  4.359116971448E-01  4.411426375105E-01  4.464363491607E-01
  4.517935853506E-01  4.572151083748E-01  4.627016896753E-01  4.682541099514E-01
  4.738731592708E-01  4.795596371821E-01  4.853143528282E-01  4.911381250622E-01
  4.970317825629E-01  5.029961639537E-01  5.090321179211E-01  5.151405033362E-01
  5.213221893762E-01  5.275780556487E-01  5.339089923165E-01  5.403159002243E-01
  5.467996910270E-01  5.533612873193E-01  5.600016227672E-01  5.667216422404E-01
  5.735223019473E-01  5.804045695706E-01  5.873694244055E-01  5.944178574983E-01
  6.015508717883E-01  6.087694822498E-01  6.160747160368E-01  6.234676126292E-01
  6.309492239808E-01  6.385206146685E-01  6.461828620446E-01  6.539370563891E-01
  6.617843010658E-01  6.697257126786E-01  6.777624212307E-01  6.858955702855E-01
  6.941263171289E-01  7.024558329344E-01  7.108853029296E-01  7.194159265648E-01
  7.280489176836E-01  7.367855046958E-01  7.456269307521E-01  7.545744539212E-01
  7.636293473682E-01  7.727928995366E-01  7.820664143311E-01  7.914512113030E-01
  8.009486258387E-01  8.105600093487E-01  8.202867294609E-01  8.301301702145E-01
  8.400917322570E-01  8.501728330441E-01  8.603749070406E-01  8.706994059251E-01
  8.811477987962E-01  8.917215723818E-01  9.024222312504E-01  9.132512980254E-01
  9.242103136017E-01  9.353008373649E-01  9.465244474133E-01  9.578827407822E-01
  9.693773336716E-01  9.810098616757E-01  9.927819800158E-01  1.004695363776E+00
  1.016751708141E+00  1.028952728639E+00  1.041300161383E+00  1.053795763319E+00
  1.066441312479E+00  1.079238608229E+00  1.092189471528E+00  1.105295745186E+00
  1.118559294128E+00  1.131982005658E+00  1.145565789726E+00  1.159312579202E+00
  1.173224330153E+00  1.187303022115E+00  1.201550658380E+00  1.215969266280E+00
  1.230560897476E+00  1.245327628246E+00  1.260271559784E+00  1.275394818502E+00
  1.290699556324E+00  1.306187951000E+00  1.321862206412E+00  1.337724552889E+00
  1.353777247523E+00  1.370022574494E+00  1.386462845388E+00  1.403100399532E+00
  1.419937604327E+00  1.436976855579E+00  1.454220577846E+00  1.471671224780E+00
  1.489331279477E+00  1.507203254831E+00  1.525289693889E+00  1.543593170215E+00
  1.562116288258E+00  1.580861683717E+00  1.599832023922E+00  1.619030008209E+00
  1.638458368307E+00  1.658119868727E+00  1.678017307152E+00  1.698153514837E+00
  1.718531357016E+00  1.739153733300E+00  1.760023578099E+00  1.781143861036E+00
  1.802517587369E+00  1.824147798417E+00  1.846037571998E+00  1.868190022862E+00
  1.890608303137E+00  1.913295602774E+00  1.936255150008E+00  1.959490211808E+00
  1.983004094349E+00  2.006800143482E+00  2.030881745203E+00  2.055252326146E+00
  2.079915354060E+00  2.104874338308E+00  2.130132830368E+00  2.155694424332E+00
  2.181562757424E+00  2.207741510513E+00  2.234234408640E+00  2.261045221543E+00
  2.288177764202E+00  2.315635897372E+00  2.343423528141E+00  2.371544610478E+00
  2.400003145804E+00  2.428803183554E+00  2.457948821756E+00  2.487444207618E+00
  2.517293538109E+00  2.547501060566E+00  2.578071073293E+00  2.609007926173E+00
  2.640316021287E+00  2.671999813542E+00  2.704063811305E+00  2.736512577040E+00
  2.769350727965E+00  2.802582936700E+00  2.836213931941E+00  2.870248499124E+00
  2.904691481113E+00  2.939547778887E+00  2.974822352233E+00  3.010520220460E+00
  3.046646463106E+00  3.083206220663E+00  3.120204695311E+00  3.157647151655E+00
  3.195538917475E+00  3.233885384484E+00  3.272692009098E+00  3.311964313207E+00
  3.351707884966E+00  3.391928379585E+00  3.432631520140E+00  3.473823098382E+00
  3.515508975563E+00  3.557695083269E+00  3.600387424269E+00  3.643592073360E+00
  3.687315178240E+00  3.731562960379E+00  3.776341715904E+00  3.821657816494E+00
  3.867517710292E+00  3.913927922816E+00  3.960895057890E+00  4.008425798584E+00
  4.056526908167E+00  4.105205231065E+00  4.154467693838E+00  4.204321306164E+00
  4.254773161838E+00  4.305830439780E+00  4.357500405058E+00  4.409790409918E+00
  4.462707894837E+00  4.516260389575E+00  4.570455514250E+00  4.625300980421E+00
  4.680804592186E+00  4.736974247293E+00  4.793817938260E+00  4.851343753519E+00
  4.909559878561E+00  4.968474597104E+00  5.028096292269E+00  5.088433447777E+00
  5.149494649150E+00  5.211288584940E+00  5.273824047959E+00  5.337109936535E+00
  5.401155255773E+00  5.465969118842E+00  5.531560748268E+00  5.597939477248E+00
  5.665114750975E+00  5.733096127986E+00  5.801893281522E+00  5.871516000900E+00
  5.941974192911E+00  6.013277883226E+00  6.085437217825E+00  6.158462464439E+00
  6.232364014012E+00  6.307152382180E+00  6.382838210766E+00  6.459432269296E+00
  6.536945456527E+00  6.615388802005E+00  6.694773467629E+00  6.775110749241E+00
  6.856412078232E+00  6.938689023171E+00  7.021953291449E+00  7.106216730946E+00
  7.191491331717E+00  7.277789227698E+00  7.365122698430E+00  7.453504170812E+00
  7.542946220861E+00  7.633461575512E+00  7.725063114418E+00  7.817763871791E+00
  7.911577038252E+00  8.006515962711E+00  8.102594154264E+00  8.199825284115E+00
  8.298223187524E+00  8.397801865775E+00  8.498575488164E+00  8.600558394022E+00
  8.703765094750E+00  8.808210275887E+00  8.913908799198E+00  9.020875704788E+00
  9.129126213246E+00  9.238675727805E+00  9.349539836538E+00  9.461734314577E+00
  9.575275126352E+00  9.690178427868E+00  9.806460569002E+00  9.924138095830E+00
  1.004322775298E+01  1.016374648602E+01  1.028571144385E+01  1.040913998117E+01
  1.053404966095E+01  1.066045825688E+01  1.078838375596E+01  1.091784436103E+01
  1.104885849337E+01  1.118144479529E+01  1.131562213283E+01  1.145140959842E+01
  1.158882651361E+01  1.172789243177E+01  1.186862714095E+01  1.201105066664E+01
  1.215518327464E+01  1.230104547394E+01  1.244865801962E+01  1.259804191586E+01
  1.274921841885E+01  1.290220903988E+01  1.305703554835E+01  1.321371997493E+01
  1.337228461463E+01  1.353275203001E+01  1.369514505437E+01  1.385948679502E+01
  1.402580063656E+01  1.419411024420E+01  1.436443956713E+01  1.453681284194E+01
  1.471125459604E+01  1.488778965119E+01  1.506644312701E+01  1.524724044453E+01
  1.543020732987E+01  1.561536981782E+01  1.580275425564E+01  1.599238730671E+01
  1.618429595439E+01  1.637850750584E+01  1.657504959591E+01  1.677395019106E+01
  1.697523759335E+01  1.717894044447E+01  1.738508772981E+01  1.759370878256E+01
  1.780483328795E+01  1.801849128741E+01  1.823471318286E+01  1.845352974105E+01
  1.867497209795E+01  1.889907176312E+01  1.912586062428E+01  1.935537095177E+01
  1.958763540319E+01  1.982268702803E+01  2.006055927237E+01  2.030128598363E+01
  2.054490141544E+01  2.079144023242E+01  2.104093751521E+01  2.129342876539E+01
  2.154894991058E+01  2.180753730951E+01  2.206922775722E+01  2.233405849031E+01
  2.260206719219E+01  2.287329199850E+01  2.314777150248E+01  2.342554476051E+01
  2.370665129764E+01  2.399113111321E+01  2.427902468657E+01  2.457037298280E+01
  2.486521745860E+01  2.516360006810E+01  2.546556326892E+01  2.577115002815E+01
  2.608040382848E+01  2.639336867442E+01  2.671008909852E+01  2.703061016770E+01
  2.735497748971E+01  2.768323721959E+01  2.801543606622E+01  2.835162129902E+01
  2.869184075461E+01  2.903614284366E+01  2.938457655779E+01  2.973719147648E+01
  3.009403777420E+01  3.045516622749E+01  3.082062822222E+01  3.119047576088E+01
  3.156476147001E+01  3.194353860765E+01  3.232686107095E+01  3.271478340380E+01
  3.310736080464E+01  3.350464913430E+01  3.390670492391E+01  3.431358538300E+01
  3.472534840759E+01  3.514205258849E+01  3.556375721955E+01  3.599052230618E+01
  3.642240857386E+01  3.685947747674E+01  3.730179120646E+01  3.774941270094E+01
  3.820240565335E+01  3.866083452119E+01  3.912476453545E+01  3.959426170987E+01
  4.006939285039E+01  4.055022556459E+01  4.103682827137E+01  4.152927021063E+01
  4.202762145315E+01  4.253195291059E+01  4.304233634552E+01  4.355884438166E+01
  4.408155051424E+01
</grid-data>
</grid>
<valence-charge total-charge="8" is-unscreening-charge="yes"
 rescaled-to-z-pseudo="no">
<radfunc>
<data npts="457">
  1.020437708658E-02  1.021382769035E-02  1.024209769141E-02  1.028932518625E-02
  1.035876719448E-02  1.044761985569E-02  1.056126365473E-02  1.069194983058E-02
  1.083959993412E-02  1.101273046430E-02  1.120910260957E-02  1.142401976346E-02
  1.168581249481E-02  1.196163170196E-02  1.223962556085E-02  1.256288668330E-02
  1.293919412688E-02  1.329992038144E-02  1.371013926852E-02  1.417712258341E-02
  1.470932470548E-02  1.518861214875E-02  1.572171024201E-02  1.631519428374E-02
  1.697653575703E-02  1.771423825560E-02  1.853799552221E-02  1.921888731969E-02
  1.995962221589E-02  2.076600367535E-02  2.164445902325E-02  2.260211170650E-02
  2.364686207358E-02  2.478747761020E-02  2.603369364743E-02  2.739632563942E-02
  2.888739418671E-02  3.052026405681E-02  3.169489566092E-02  3.294393026627E-02
  3.427253040565E-02  3.568623869798E-02  3.719100576359E-02  3.879321998672E-02
  4.049973920974E-02  4.231792444149E-02  4.425567565923E-02  4.632146977970E-02
  4.852440086884E-02  5.087422265344E-02  5.338139338883E-02  5.605712312723E-02
  5.891342341883E-02  6.196315946421E-02  6.522010472054E-02  6.869899794629E-02
  7.241560264856E-02  7.638676887513E-02  8.063049726778E-02  8.516600526648E-02
  9.001379532293E-02  9.519572494890E-02  1.007350783868E-01  1.066566396484E-01
  1.129867666191E-01  1.197534658705E-01  1.269864677590E-01  1.307876127179E-01
  1.347173013091E-01  1.387797678574E-01  1.429793682865E-01  1.473205823378E-01
  1.518080157449E-01  1.564464023548E-01  1.612406061865E-01  1.661956234167E-01
  1.713165842810E-01  1.766087548769E-01  1.820775388548E-01  1.877284789802E-01
  1.935672585495E-01  1.995997026390E-01  2.058317791631E-01  2.122695997194E-01
  2.189194201879E-01  2.257876410567E-01  2.328808074360E-01  2.402056087212E-01
  2.477688778611E-01  2.555775901820E-01  2.636388617112E-01  2.719599469406E-01
  2.805482359605E-01  2.894112508904E-01  2.985566415214E-01  3.079921800800E-01
  3.177257550123E-01  3.277653636770E-01  3.381191038263E-01  3.487951637427E-01
  3.598018108886E-01  3.711473789106E-01  3.828402528329E-01  3.948888522565E-01
  4.073016123714E-01  4.200869625748E-01  4.332533024750E-01  4.468089750502E-01
  4.607622367177E-01  4.751212240613E-01  4.898939169528E-01  5.050880977986E-01
  5.207113066375E-01  5.367707918114E-01  5.532734559373E-01  5.702257969083E-01
  5.876338436678E-01  6.055030865128E-01  6.238384017064E-01  6.426439702092E-01
  6.619231903737E-01  6.816785844938E-01  7.019116991564E-01  7.226229994028E-01
  7.438117567876E-01  7.654759315052E-01  7.876120488513E-01  8.102150703977E-01
  8.332782603734E-01  8.567930478789E-01  8.807488856995E-01  9.051331066289E-01
  9.299307783751E-01  9.551245582777E-01  9.806945492293E-01  1.006618158362E+00
  1.032869960214E+00  1.059421566245E+00  1.086241502723E+00  1.113295099108E+00
  1.140544389183E+00  1.167948027259E+00  1.195461221814E+00  1.223035688975E+00
  1.250619628181E+00  1.278157722344E+00  1.305591164682E+00  1.332857714247E+00
  1.359891781970E+00  1.386624548786E+00  1.412984117096E+00  1.438895696513E+00
  1.464281824425E+00  1.489062621571E+00  1.513156082352E+00  1.536478399248E+00
  1.558944320253E+00  1.580467537902E+00  1.600961108084E+00  1.620337896555E+00
  1.638511050828E+00  1.655394494935E+00  1.670903444484E+00  1.684954939420E+00
  1.697468391964E+00  1.708366147355E+00  1.717574055221E+00  1.725022049657E+00
  1.730644736323E+00  1.734381985142E+00  1.736179527314E+00  1.735989555460E+00
  1.733771325582E+00  1.729491759240E+00  1.723126043748E+00  1.714658227311E+00
  1.704081804815E+00  1.691400288332E+00  1.676627754529E+00  1.659789358833E+00
  1.640921803760E+00  1.620073746178E+00  1.597306125725E+00  1.572692394311E+00
  1.546318624914E+00  1.518283476899E+00  1.488697995348E+00  1.457685223422E+00
  1.425379610124E+00  1.391925426275E+00  1.357471736714E+00  1.322165438123E+00
  1.286149086219E+00  1.249560895183E+00  1.212533311365E+00  1.175192303271E+00
  1.137656718367E+00  1.100037816957E+00  1.062439159441E+00  1.024957382250E+00
  9.876834330640E-01  9.507027094276E-01  9.140947573591E-01  8.779333615458E-01
  8.422865378815E-01  8.072165774145E-01  7.727801169535E-01  7.390282358709E-01
  7.060065767259E-01  6.737554872949E-01  6.423101816435E-01  6.117009177109E-01
  5.819531894136E-01  5.530879306883E-01  5.251217294525E-01  4.980670493726E-01
  4.719324574514E-01  4.467228555639E-01  4.224397141908E-01  3.990813067204E-01
  3.766429428213E-01  3.551171995200E-01  3.344941487488E-01  3.147615802672E-01
  2.959052189569E-01  2.779089357060E-01  2.607549510997E-01  2.444240313489E-01
  2.288956759412E-01  2.141482966774E-01  2.001593877553E-01  1.869056867367E-01
  1.743633262799E-01  1.625079766027E-01  1.513149787053E-01  1.407594684415E-01
  1.308164915756E-01  1.214611100032E-01  1.126684993502E-01  1.044140381879E-01
  9.667338912644E-02  8.942257206276E-02  8.263802987082E-02  7.629668683030E-02
  7.037600009475E-02  6.485400450429E-02  5.970935105007E-02  5.492133930004E-02
  5.046994409708E-02  4.633583684279E-02  4.250040168194E-02  3.894574690489E-02
  3.565471188705E-02  3.261086988610E-02  2.979852701852E-02  2.720271773672E-02
  2.480919712666E-02  2.260443034291E-02  2.057557949322E-02  1.871048827828E-02
  1.699766468366E-02  1.542626201099E-02  1.398605852321E-02  1.266743596513E-02
  1.146135720579E-02  1.035934323294E-02  9.353449712913E-03  8.436243311863E-03
  7.600777956062E-03  6.840571191236E-03  6.149580782764E-03  5.522181681070E-03
  4.953143459447E-03  4.437608315145E-03  3.971069709034E-03  3.549351704517E-03
  3.168589052838E-03  2.825208059478E-03  2.515908255076E-03  2.237644884240E-03
  1.987612216758E-03  1.763227678040E-03  1.562116789120E-03  1.382098901145E-03
  1.221173704897E-03  1.077508492504E-03  9.494261459370E-04  8.353938251364E-04
  7.340123274638E-04  6.440060896581E-04  5.642138033570E-04  4.935796155282E-04
  4.311448856975E-04  3.760404726160E-04  3.274795238907E-04  2.847507430636E-04
  2.472121096272E-04  2.142850284572E-04  1.854488861181E-04  1.602359924325E-04
  1.382268865857E-04  1.190459878673E-04  1.023575719315E-04  8.786205418295E-05
  7.529256258236E-05  6.441178281653E-05  5.500905939595E-05  4.689773684515E-05
  3.991272573411E-05  3.390827887474E-05  2.875596357669E-05  2.434281642546E-05
  2.056966761560E-05  1.734962244320E-05  1.460668813561E-05  1.227453477180E-05
  1.029537962260E-05  8.618984814306E-06  7.201758790652E-06  6.005952613043E-06
  4.998942696437E-06  4.152592124718E-06  3.442683223085E-06  2.848414583478E-06
  2.351956240469E-06  1.938057177557E-06  1.593699806021E-06  1.307796499164E-06
  1.070923683104E-06  8.750893804837E-07  7.135304754329E-07  5.805363165060E-07
  4.712955994559E-07  3.817637738028E-07  3.085484967996E-07  2.488109162226E-07
  2.001808002432E-07  1.606837493515E-07  1.286789229037E-07  1.028058923773E-07
  8.193939592958E-08  6.515091545991E-08  5.167612917636E-08  4.088741075714E-08
  3.227065164580E-08  2.540577686810E-08  1.995040800765E-08  1.562620058304E-08
  1.220744793692E-08  9.511600730121E-09  7.391401029418E-09  5.728373527291E-09
  4.427454321930E-09  3.412570546833E-09  2.623012548038E-09  2.010464788974E-09
  1.536582693736E-09  1.171020648488E-09  8.898317527096E-10  6.741729915426E-10
  5.092605937457E-10  3.835297182869E-10  2.879605158864E-10  2.155392504034E-10
  1.608287231105E-10  1.196268812612E-10  8.869635043151E-11  6.555082856766E-11
  4.828692245913E-11  3.545218370242E-11  2.594188740901E-11  1.891855790308E-11
  1.374943656529E-11  9.958054384008E-12  7.186854886105E-12  5.168444818622E-12
  3.703557709536E-12  2.644222109849E-12  1.880950857895E-12  1.333025755634E-12
  9.411564729995E-13  6.619538412694E-13  4.637845613740E-13  3.236737282534E-13
  2.249991165078E-13  1.557814473467E-13  1.074215250134E-13  7.377112121868E-14
  5.045213090389E-14  3.435967131473E-14  2.330090935177E-14  1.573362783701E-14
  1.057777881127E-14  7.080222174429E-15  4.718054933853E-15  3.129820439171E-15
  2.066771678184E-15  1.358495690625E-15  8.887762679863E-16  5.787226643581E-16
  3.750313040184E-16  2.418568318348E-16  1.552092203819E-16  9.911039136459E-17
  6.297051541047E-17  3.980569644428E-17  2.503319882042E-17  1.566114156044E-17
  9.746283033180E-18  6.033029935669E-18  3.714365781245E-18  2.274353870933E-18
  1.384926189684E-18  8.386119162991E-19  5.049301527190E-19  2.941624333951E-19
  1.752521209570E-19  1.037937189508E-19  6.110499443739E-20  0.000000000000E+00
  0.000000000000E+00  0.000000000000E+00  0.000000000000E+00  0.000000000000E+00
  0.000000000000E+00  0.000000000000E+00  0.000000000000E+00  0.000000000000E+00
  0.000000000000E+00  0.000000000000E+00  0.000000000000E+00  0.000000000000E+00
  0.000000000000E+00  0.000000000000E+00  0.000000000000E+00  0.000000000000E+00
  0.000000000000E+00  0.000000000000E+00  0.000000000000E+00  0.000000000000E+00
  0.000000000000E+00  0.000000000000E+00  0.000000000000E+00  0.000000000000E+00
  0.000000000000E+00  0.000000000000E+00  0.000000000000E+00  0.000000000000E+00
  0.000000000000E+00  0.000000000000E+00  0.000000000000E+00  0.000000000000E+00
  0.000000000000E+00  0.000000000000E+00  0.000000000000E+00  0.000000000000E+00
  0.000000000000E+00
</data>
</radfunc>
</valence-charge>
<pseudocore-charge matching-radius="1.41993760433"
 number-of-continuous-derivatives="4">
<annotation model-charge-form="Teter function with specified parameters" />
<radfunc>
<data npts="290">
  1.384584645617E+01  1.384548308229E+01  1.384439675929E+01  1.384258414466E+01
  1.383992386204E+01  1.383652848080E+01  1.383219954584E+01  1.382724038147E+01
  1.382166157277E+01  1.381515210265E+01  1.380781003335E+01  1.379982394774E+01
  1.379016428121E+01  1.378006635652E+01  1.376996917512E+01  1.375832670145E+01
  1.374490396863E+01  1.373216468374E+01  1.371782468272E+01  1.370168472158E+01
  1.368352126452E+01  1.366736613288E+01  1.364961401663E+01  1.363010931945E+01
  1.360868176208E+01  1.358514509757E+01  1.355929573594E+01  1.353825797015E+01
  1.351569336004E+01  1.349149380407E+01  1.346554396393E+01  1.343772084505E+01
  1.340789336316E+01  1.337592189861E+01  1.334165784007E+01  1.330494312031E+01
  1.326560974689E+01  1.322347933162E+01  1.319374547957E+01  1.316262576779E+01
  1.313005904944E+01  1.309598182509E+01  1.306032818793E+01  1.302302977172E+01
  1.298401570229E+01  1.294321255297E+01  1.290054430508E+01  1.285593231393E+01
  1.280929528147E+01  1.276054923656E+01  1.270960752384E+01  1.265638080251E+01
  1.260077705620E+01  1.254270161550E+01  1.248205719450E+01  1.241874394312E+01
  1.235265951691E+01  1.228369916638E+01  1.221175584772E+01  1.213672035735E+01
  1.205848149238E+01  1.197692623970E+01  1.189193999624E+01  1.180340682311E+01
  1.171120973674E+01  1.161523103983E+01  1.151535269546E+01  1.146391427855E+01
  1.141145674757E+01  1.135796544777E+01  1.130342579111E+01  1.124782327391E+01
  1.119114349540E+01  1.113337217723E+01  1.107449518394E+01  1.101449854441E+01
  1.095336847434E+01  1.089109139974E+01  1.082765398153E+01  1.076304314120E+01
  1.069724608758E+01  1.063025034477E+01  1.056204378120E+01  1.049261463987E+01
  1.042195156977E+01  1.035004365852E+01  1.027688046623E+01  1.020245206058E+01
  1.012674905309E+01  1.004976263676E+01  9.971484624777E+00  9.891907490620E+00
  9.811024409299E+00  9.728829299862E+00  9.645316869103E+00  9.560482656460E+00
  9.474323080081E+00  9.386835484025E+00  9.298018186562E+00  9.207870529532E+00
  9.116392928710E+00  9.023586925120E+00  8.929455237230E+00  8.834001813966E+00
  8.737231888447E+00  8.639152032359E+00  8.539770210863E+00  8.439095837929E+00
  8.337139831969E+00  8.233914671631E+00  8.129434451625E+00  8.023714938401E+00
  7.916773625525E+00  7.808629788559E+00  7.699304539255E+00  7.588820878846E+00
  7.477203750211E+00  7.364480088674E+00  7.250678871182E+00  7.135831163586E+00
  7.019970165758E+00  6.903131254218E+00  6.785352021980E+00  6.666672315269E+00
  6.547134266785E+00  6.426782325126E+00  6.305663280030E+00  6.183826283031E+00
  6.061322863134E+00  5.938206937108E+00  5.814534813972E+00  5.690365193252E+00
  5.565759156572E+00  5.440780152140E+00  5.315493971694E+00  5.189968719453E+00
  5.064274772648E+00  4.938484733182E+00  4.812673370003E+00  4.686917551763E+00
  4.561296169371E+00  4.435890048044E+00  4.310781848514E+00  4.186055957037E+00
  4.061798363917E+00  3.938096530292E+00  3.815039242930E+00  3.692716456908E+00
  3.571219126019E+00  3.450639020874E+00  3.331068534711E+00  3.212600476973E+00
  3.095327854847E+00  2.979343642999E+00  2.864740541837E+00  2.751610724765E+00
  2.640045574952E+00  2.530135412273E+00  2.421969211195E+00  2.315634310495E+00
  2.211216115815E+00  2.108797796191E+00  2.008459975837E+00  1.910280422559E+00
  1.814333734346E+00  1.720691025780E+00  1.629419616064E+00  1.540582720557E+00
  1.454239147849E+00  1.370443004508E+00  1.289243409717E+00  1.210684222131E+00
  1.134803781327E+00  1.061634666302E+00  9.912034734868E-01  9.235306167752E-01
  8.586301520514E-01  7.965096286601E-01  7.371699702075E-01  6.806053869794E-01
  6.268033221390E-01  5.757444337053E-01  5.274026141147E-01  4.817450489352E-01
  4.387323160346E-01  3.983185261922E-01  3.604515058061E-01  3.250730219646E-01
  2.921190497423E-01  2.615200811404E-01  2.332014746216E-01  2.070838437030E-01
  1.830834825644E-01  1.611128261139E-01  1.410809414351E-01  1.228940470276E-01
  1.064560557543E-01  9.166913693229E-02  7.843429256684E-02  6.665194232696E-02
  5.622251152190E-02  4.704701606042E-02  3.902763817504E-02  3.206828657836E-02
  2.607513470021E-02  2.095713073704E-02  1.662647343833E-02  1.299904786110E-02
  9.994815746186E-03  7.538155708740E-03  5.558149086494E-03  3.988808048096E-03
  2.769243419796E-03  1.843770630212E-03  1.161953183803E-03  6.785841349139E-04
  3.536071240578E-04  1.519796317022E-04  4.348217556618E-05  2.478197100531E-06
  7.630322407944E-06  4.157951358066E-05  9.059432060613E-05  1.441979761425E-04
  1.947814234420E-04  2.372105137651E-04  2.684355415359E-04  2.871109974365E-04
  2.932329130741E-04  2.878004550423E-04  2.725075185394E-04  2.494689966862E-04
  2.209851944955E-04  1.893465561440E-04  1.566795265419E-04  1.248330229675E-04
  9.530370158914E-05  6.919701866558E-05  4.722005599932E-05  2.970124838541E-05
  1.663155306275E-05  7.721263017632E-06  2.466600718542E-06  2.204361675461E-07
  2.619383863854E-07  1.860663709464E-06  4.331465368941E-06  7.077623344989E-06
  9.620679347852E-06  1.161655227299E-05  1.285853708187E-05  1.326869132646E-05
  1.287983354271E-05  1.181087440942E-05  1.023844920971E-05  8.367811885063E-06
  6.405699877627E-06  4.537417386903E-06  2.909762049521E-06  1.620698932655E-06
  7.159364293863E-07  1.918528743592E-07  3.626751438886E-09  7.699149280411E-08
  3.218045987776E-07  6.456048857395E-07  9.655222061414E-07  1.217269185671E-06
  1.360433109170E-06  1.379833184128E-06  1.283243344272E-06  1.096235888416E-06
  8.552207598710E-07  5.999026801283E-07  3.663416575575E-07  1.815959310908E-07
  6.058892736513E-08  5.430822849813E-09  0.000000000000E+00  0.000000000000E+00
  0.000000000000E+00  0.000000000000E+00  0.000000000000E+00  0.000000000000E+00
  0.000000000000E+00  0.000000000000E+00  0.000000000000E+00  0.000000000000E+00
  0.000000000000E+00  0.000000000000E+00
</data>
</radfunc>
</pseudocore-charge>
<semilocal-potentials set="scalar_relativistic">
<slps n="5" l="s" rc="2.00680014348">
<radfunc>
<data npts="290">
  3.386385322392E+01  3.384862741191E+01  3.380316999768E+01  3.372752338799E+01
  3.361695723523E+01  3.347662232881E+01  3.329896449402E+01  3.309716077896E+01
  3.287230609054E+01  3.261279397380E+01  3.232371290759E+01  3.201355374337E+01
  3.164422590298E+01  3.126480147189E+01  3.089203837650E+01  3.047023905381E+01
  2.999427967710E+01  2.955247544253E+01  2.906633400025E+01  2.853283764319E+01
  2.794909512726E+01  2.744411673328E+01  2.690403611792E+01  2.632779515818E+01
  2.571454487176E+01  2.506368773776E+01  2.437492090558E+01  2.383347451617E+01
  2.327086814219E+01  2.268738310202E+01  2.208343763238E+01  2.145959383686E+01
  2.081656321451E+01  2.015521051539E+01  1.947655568803E+01  1.878177371176E+01
  1.807219214567E+01  1.734928627481E+01  1.686073900964E+01  1.636749667488E+01
  1.587009501588E+01  1.536909231543E+01  1.486506744522E+01  1.435861773798E+01
  1.385035669620E+01  1.334091155535E+01  1.283092072187E+01  1.232103110785E+01
  1.181189538568E+01  1.130416918711E+01  1.079850827151E+01  1.029556568853E+01
  9.795988959765E+00  9.300417303384E+00  8.809478924489E+00  8.323788392245E+00
  7.843944122873E+00  7.370525985247E+00  6.904093043214E+00  6.445181445904E+00
  5.994302474318E+00  5.551940749371E+00  5.118552603464E+00  4.694564614586E+00
  4.280372298989E+00  3.876338955703E+00  3.482794653616E+00  3.290049733685E+00
  3.100035349615E+00  2.912783040691E+00  2.728322124428E+00  2.546679678069E+00
  2.367880521329E+00  2.191947200234E+00  2.018899971950E+00  1.848756790460E+00
  1.681533292973E+00  1.517242786957E+00  1.355896237662E+00  1.197502256053E+00
  1.042067087039E+00  8.895945979276E-01  7.400862670218E-01  5.935411723098E-01
  4.499559802049E-01  3.093249343018E-01  1.716398441641E-01  3.689007414115E-02
 -9.493746772707E-02 -2.238583406566E-01 -3.498905818221E-01 -4.730547166763E-01
 -5.933737687408E-01 -7.108732686535E-01 -8.255812622586E-01 -9.375283174436E-01
 -1.046747529423E+00 -1.153274524106E+00 -1.257147459127E+00 -1.358407022112E+00
 -1.457096425647E+00 -1.553261398423E+00 -1.646950171930E+00 -1.738213462056E+00
 -1.827104444890E+00 -1.913678725941E+00 -1.997994302012E+00 -2.080111514825E+00
 -2.160092995538E+00 -2.238003599190E+00 -2.313910328114E+00 -2.387882243312E+00
 -2.459990362759E+00 -2.530307545622E+00 -2.598908361335E+00 -2.665868942504E+00
 -2.731266820650E+00 -2.795180743803E+00 -2.857690475043E+00 -2.918876571134E+00
 -2.978820140504E+00 -3.037602579923E+00 -3.095305289357E+00 -3.152009364649E+00
 -3.207795267838E+00 -3.262742475124E+00 -3.316929102726E+00 -3.370431511099E+00
 -3.423323888284E+00 -3.475677813344E+00 -3.527561801389E+00 -3.579040831586E+00
 -3.630175860406E+00 -3.681023322233E+00 -3.731634620109E+00 -3.782055609589E+00
 -3.832326079070E+00 -3.882479230286E+00 -3.932541162975E+00 -3.982530368042E+00
 -4.032457233792E+00 -4.082323570107E+00 -4.132122155625E+00 -4.181836313206E+00
 -4.231439519113E+00 -4.280895051475E+00 -4.330155683709E+00 -4.379163428606E+00
 -4.427849338896E+00 -4.476133370048E+00 -4.523924311129E+00 -4.571119789496E+00
 -4.617606355108E+00 -4.663259650238E+00 -4.707944670343E+00 -4.751516121945E+00
 -4.793818883363E+00 -4.834688574288E+00 -4.873952240318E+00 -4.911429158749E+00