Ni    ONCVPSP-3.3.0  r_core=   1.26116   1.35474   1.65929
28.0000     18.0000      180424    zatom,zion,pspd
8      11   2     4   600     0    pspcod,pspxc,lmax,lloc,mmax,r2well
5.99000000  3.00000000  0.00000000    rchrg fchrg qchrg
2     3     2     0    nproj
3     1           extension_switch
4     2     0    nprojso
0                        -2.5157892550936D-01  6.2566294522821D+00
1  0.0000000000000D+00 -1.2061185050705D-08 -1.3605115922743D-09
2  1.0000000000000D-02  5.7970522422300D-02  1.0433584372902D-01
3  2.0000000000000D-02  1.1534503327321D-01  2.0827614475685D-01
4  3.0000000000000D-02  1.7153675938368D-01  3.1142764863320D-01
5  4.0000000000000D-02  2.2597723780874D-01  4.1340165439239D-01
6  5.0000000000000D-02  2.7812505765169D-01  5.1381623410860D-01
7  6.0000000000000D-02  3.2747411474118D-01  6.1229838481753D-01
8  7.0000000000000D-02  3.7356123126355D-01  7.0848609189136D-01
9  8.0000000000000D-02  4.1597300451399D-01  8.0203028431511D-01
10  9.0000000000000D-02  4.5435176357114D-01  8.9259666396556D-01
11  1.0000000000000D-01  4.8840052964257D-01  9.7986739291132D-01
12  1.1000000000000D-01  5.1788689475078D-01  1.0635426248981D+00
13  1.2000000000000D-01  5.4264575397072D-01  1.1433418695182D+00
14  1.3000000000000D-01  5.6258084819849D-01  1.2190051800464D+00
15  1.4000000000000D-01  5.7766509701192D-01  1.2902941585098D+00
16  1.5000000000000D-01  5.8793972414398D-01  1.3569927742005D+00
17  1.6000000000000D-01  5.9351220099145D-01  1.4189079944913D+00
18  1.7000000000000D-01  5.9455305598216D-01  1.4758702294255D+00
19  1.8000000000000D-01  5.9129161909510D-01  1.5277335940802D+00
20  1.9000000000000D-01  5.8401079095263D-01  1.5743759950966D+00
21  2.0000000000000D-01  5.7304094429378D-01  1.6156990500004D+00
22  2.1000000000000D-01  5.5875308193402D-01  1.6516278499438D+00
23  2.2000000000000D-01  5.4155138920125D-01  1.6821105782751D+00
24  2.3000000000000D-01  5.2186533003447D-01  1.7071179988322D+00
25  2.4000000000000D-01  5.0014144422098D-01  1.7266428290542D+00
26  2.5000000000000D-01  4.7683500845747D-01  1.7406990138783D+00
27  2.6000000000000D-01  4.5240172594349D-01  1.7493209169417D+00
28  2.7000000000000D-01  4.2728960800300D-01  1.7525624458144D+00
29  2.8000000000000D-01  4.0193120679303D-01  1.7504961278677D+00
30  2.9000000000000D-01  3.7673635057592D-01  1.7432121529323D+00
31  3.0000000000000D-01  3.5208552243883D-01  1.7308173981320D+00
32  3.1000000000000D-01  3.2832400993639D-01  1.7134344492248D+00
33  3.2000000000000D-01  3.0575693716399D-01  1.6912006314517D+00
34  3.3000000000000D-01  2.8464527253981D-01  1.6642670613357D+00
35  3.4000000000000D-01  2.6520288543305D-01  1.6327977291062D+00
36  3.5000000000000D-01  2.4759470311462D-01  1.5969686195046D+00
37  3.6000000000000D-01  2.3193599673837D-01  1.5569668766824D+00
38  3.7000000000000D-01  2.1829280163893D-01  1.5129900167962D+00
39  3.8000000000000D-01  2.0668345360830D-01  1.4652451897672D+00
40  3.9000000000000D-01  1.9708119946333D-01  1.4139484895606D+00
41  4.0000000000000D-01  1.8941781759991D-01  1.3593243103076D+00
42  4.1000000000000D-01  1.8358816280593D-01  1.3016047436663D+00
43  4.2000000000000D-01  1.7945552980971D-01  1.2410290110654D+00
44  4.3000000000000D-01  1.7685771227998D-01  1.1778429229192D+00
45  4.4000000000000D-01  1.7561361863910D-01  1.1122983555867D+00
46  4.5000000000000D-01  1.7553029343151D-01  1.0446527358100D+00
47  4.6000000000000D-01  1.7641018337967D-01  9.7516852162258D-01
48  4.7000000000000D-01  1.7805848088041D-01  9.0411266829384D-01
49  4.8000000000000D-01  1.8029037470507D-01  8.3175606779004D-01
50  4.9000000000000D-01  1.8293803815790D-01  7.5837295047762D-01
51  5.0000000000000D-01  1.8585718895040D-01  6.8424023838768D-01
52  5.1000000000000D-01  1.8893306250970D-01  6.0963684028048D-01
53  5.2000000000000D-01  1.9208565126020D-01  5.3484287998808D-01
54  5.3000000000000D-01  1.9527407641200D-01  4.6013885104818D-01
55  5.4000000000000D-01  1.9849997569944D-01  3.8580469244158D-01
56  5.5000000000000D-01  2.0180981006589D-01  3.1211878227978D-01
57  5.6000000000000D-01  2.0529601410458D-01  2.3935684851394D-01
58  5.7000000000000D-01  2.0909693869727D-01  1.6779079810423D-01
59  5.8000000000000D-01  2.1339555941673D-01  9.7687468561947D-02
60  5.9000000000000D-01  2.1841695016047D-01  2.9307308281190D-02
61  6.0000000000000D-01  2.2442454797835D-01 -3.7097005411120D-02
62  6.1000000000000D-01  2.3171526124072D-01 -1.0128199912989D-01
63  6.2000000000000D-01  2.4061349901263D-01 -1.6301487355039D-01
64  6.3000000000000D-01  2.5146422395175D-01 -2.2207499495051D-01
65  6.4000000000000D-01  2.6462515383081D-01 -2.7825539044349D-01
66  6.5000000000000D-01  2.8045825751988D-01 -3.3136422752151D-01
67  6.6000000000000D-01  2.9932070926834D-01 -3.8122625721466D-01
68  6.7000000000000D-01  3.2155548023628D-01 -4.2768419920280D-01
69  6.8000000000000D-01  3.4748175798295D-01 -4.7060004664270D-01
70  6.9000000000000D-01  3.7738539271512D-01 -5.0985626831615D-01
71  7.0000000000000D-01  4.1150957339675D-01 -5.4535688597298D-01
72  7.1000000000000D-01  4.5004593712421D-01 -5.7702840545999D-01
73  7.2000000000000D-01  4.9312631140624D-01 -6.0482058138126D-01
74  7.3000000000000D-01  5.4081528120111D-01 -6.2870699662416D-01
75  7.4000000000000D-01  5.9310376076957D-01 -6.4868544009742D-01
76  7.5000000000000D-01  6.4990373495898D-01 -6.6477806841150D-01
77  7.6000000000000D-01  7.1104431532099D-01 -6.7703134000530D-01
78  7.7000000000000D-01  7.7626923424162D-01 -6.8551571328179D-01
79  7.8000000000000D-01  8.4523587507311D-01 -6.9032510365838D-01
80  7.9000000000000D-01  9.1751590870735D-01 -6.9157609798837D-01
81  8.0000000000000D-01  9.9259757757632D-01 -6.8940692851199D-01
82  8.1000000000000D-01  1.0698896372509D+00 -6.8397621228542D-01
83  8.2000000000000D-01  1.1487269342144D+00 -6.7546146584464D-01
84  8.3000000000000D-01  1.2283775666091D+00 -6.6405740861885D-01
85  8.4000000000000D-01  1.3080515434009D+00 -6.4997407224529D-01
86  8.5000000000000D-01  1.3869108270995D+00 -6.3343473638311D-01
87  8.6000000000000D-01  1.4640806164954D+00 -6.1467371481244D-01
88  8.7000000000000D-01  1.5386616994183D+00 -5.9393401847029D-01
89  8.8000000000000D-01  1.6097436818218D+00 -5.7146492455926D-01
90  8.9000000000000D-01  1.6764188790446D+00 -5.4751948291485D-01
91  9.0000000000000D-01  1.7377966383410D+00 -5.2235199238466D-01
92  9.1000000000000D-01  1.7930178490795D+00 -4.9621548102208D-01
93  9.2000000000000D-01  1.8412693886727D+00 -4.6935922439632D-01
94  9.3000000000000D-01  1.8817982485651D+00 -4.4202633625203D-01
95  9.4000000000000D-01  1.9139250855800D+00 -4.1445146510437D-01
96  9.5000000000000D-01  1.9370569496783D+00 -3.8685862913097D-01
97  9.6000000000000D-01  1.9506989496592D+00 -3.5945921993135D-01
98  9.7000000000000D-01  1.9544646333999D+00 -3.3245020339034D-01
99  9.8000000000000D-01  1.9480848785880D+00 -3.0601254304727D-01
100  9.9000000000000D-01  1.9314151139948D+00 -2.8030986797839D-01
101  1.0000000000000D+00  1.9044407170787D+00 -2.5548740365845D-01
102  1.0100000000000D+00  1.8672804659025D+00 -2.3167117993180D-01
103  1.0200000000000D+00  1.8201879551830D+00 -2.0896752600722D-01
104  1.0300000000000D+00  1.7635509219289D+00 -1.8746285772443D-01
105  1.0400000000000D+00  1.6978884624784D+00 -1.6722375763351D-01
106  1.0500000000000D+00  1.6238461615800D+00 -1.4829734345166D-01
107  1.0600000000000D+00  1.5421891883964D+00 -1.3071191610318D-01
108  1.0700000000000D+00  1.4537934553596D+00 -1.1447787336432D-01
109  1.0800000000000D+00  1.3596349690599D+00 -9.9588870970724D-02
110  1.0900000000000D+00  1.2607775365897D+00 -8.6023208778042D-02
111  1.1000000000000D+00  1.1583590236092D+00 -7.3745415509185D-02
112  1.1100000000000D+00  1.0535763839596D+00 -6.2708002722246D-02
113  1.1200000000000D+00  9.4766971142081D-01 -5.2853354886799D-02
114  1.1300000000000D+00  8.4190557958318D-01 -4.4115720611850D-02
115  1.1400000000000D+00  7.3755995330135D-01 -3.6423267996756D-02
116  1.1500000000000D+00  6.3590096457079D-01 -2.9700165984495D-02
117  1.1600000000000D+00  5.3817185367306D-01 -2.3868652730825D-02
118  1.1700000000000D+00  4.4557438873170D-01 -1.8851051268609D-02
119  1.1800000000000D+00  3.5925305695143D-01 -1.4571694160560D-02
120  1.1900000000000D+00  2.8027975100954D-01 -1.0958764827423D-02
121  1.2000000000000D+00  2.0964172392961D-01 -7.9458278443569D-03
122  1.2100000000000D+00  1.4822825589323D-01 -5.4733840188880D-03
123  1.2200000000000D+00  9.6820434297382D-02 -3.4918737291618D-03
124  1.2300000000000D+00  5.5992016695213D-02 -1.9616910661679D-03
125  1.2400000000000D+00  2.6024238911762D-02 -8.5385280066485D-04
126  1.2500000000000D+00  8.1264457291266D-03 -1.8099535134764D-04
127  1.2600000000000D+00  9.9724270475850D-04  8.4001743111539D-05
128  1.2700000000000D+00 -2.6523861713885D-04  5.8618462767333D-05
129  1.2800000000000D+00  9.7943916769223D-05 -1.4082324152916D-05
130  1.2900000000000D+00  3.8320323705972D-05 -4.6768810779176D-06
131  1.3000000000000D+00 -2.0230594228210D-05  3.4794300200266D-06
132  1.3100000000000D+00 -1.1244556656006D-06 -1.6046620856230D-07
133  1.3200000000000D+00 -9.2897629587327D-07 -1.3257019249702D-07
134  1.3300000000000D+00  0.0000000000000D+00  0.0000000000000D+00
135  1.3400000000000D+00  0.0000000000000D+00  0.0000000000000D+00
136  1.3500000000000D+00  0.0000000000000D+00  0.0000000000000D+00
137  1.3600000000000D+00  0.0000000000000D+00  0.0000000000000D+00
138  1.3700000000000D+00  0.0000000000000D+00  0.0000000000000D+00
139  1.3800000000000D+00  0.0000000000000D+00  0.0000000000000D+00
140  1.3900000000000D+00  0.0000000000000D+00  0.0000000000000D+00
141  1.4000000000000D+00  0.0000000000000D+00  0.0000000000000D+00
142  1.4100000000000D+00  0.0000000000000D+00  0.0000000000000D+00
143  1.4200000000000D+00  0.0000000000000D+00  0.0000000000000D+00
144  1.4300000000000D+00  0.0000000000000D+00  0.0000000000000D+00
145  1.4400000000000D+00  0.0000000000000D+00  0.0000000000000D+00
146  1.4500000000000D+00  0.0000000000000D+00  0.0000000000000D+00
147  1.4600000000000D+00  0.0000000000000D+00  0.0000000000000D+00
148  1.4700000000000D+00  0.0000000000000D+00  0.0000000000000D+00
149  1.4800000000000D+00  0.0000000000000D+00  0.0000000000000D+00
150  1.4900000000000D+00  0.0000000000000D+00  0.0000000000000D+00
151  1.5000000000000D+00  0.0000000000000D+00  0.0000000000000D+00
152  1.5100000000000D+00  0.0000000000000D+00  0.0000000000000D+00
153  1.5200000000000D+00  0.0000000000000D+00  0.0000000000000D+00
154  1.5300000000000D+00  0.0000000000000D+00  0.0000000000000D+00
155  1.5400000000000D+00  0.0000000000000D+00  0.0000000000000D+00
156  1.5500000000000D+00  0.0000000000000D+00  0.0000000000000D+00
157  1.5600000000000D+00  0.0000000000000D+00  0.0000000000000D+00
158  1.5700000000000D+00  0.0000000000000D+00  0.0000000000000D+00
159  1.5800000000000D+00  0.0000000000000D+00  0.0000000000000D+00
160  1.5900000000000D+00  0.0000000000000D+00  0.0000000000000D+00
161  1.6000000000000D+00  0.0000000000000D+00  0.0000000000000D+00
162  1.6100000000000D+00  0.0000000000000D+00  0.0000000000000D+00
163  1.6200000000000D+00  0.0000000000000D+00  0.0000000000000D+00
164  1.6300000000000D+00  0.0000000000000D+00  0.0000000000000D+00
165  1.6400000000000D+00  0.0000000000000D+00  0.0000000000000D+00
166  1.6500000000000D+00  0.0000000000000D+00  0.0000000000000D+00
167  1.6600000000000D+00  0.0000000000000D+00  0.0000000000000D+00
168  1.6700000000000D+00  0.0000000000000D+00  0.0000000000000D+00
169  1.6800000000000D+00  0.0000000000000D+00  0.0000000000000D+00
170  1.6900000000000D+00  0.0000000000000D+00  0.0000000000000D+00
171  1.7000000000000D+00  0.0000000000000D+00  0.0000000000000D+00
172  1.7100000000000D+00  0.0000000000000D+00  0.0000000000000D+00
173  1.7200000000000D+00  0.0000000000000D+00  0.0000000000000D+00
174  1.7300000000000D+00  0.0000000000000D+00  0.0000000000000D+00
175  1.7400000000000D+00  0.0000000000000D+00  0.0000000000000D+00
176  1.7500000000000D+00  0.0000000000000D+00  0.0000000000000D+00
177  1.7600000000000D+00  0.0000000000000D+00  0.0000000000000D+00
178  1.7700000000000D+00  0.0000000000000D+00  0.0000000000000D+00
179  1.7800000000000D+00  0.0000000000000D+00  0.0000000000000D+00
180  1.7900000000000D+00  0.0000000000000D+00  0.0000000000000D+00
181  1.8000000000000D+00  0.0000000000000D+00  0.0000000000000D+00
182  1.8100000000000D+00  0.0000000000000D+00  0.0000000000000D+00
183  1.8200000000000D+00  0.0000000000000D+00  0.0000000000000D+00
184  1.8300000000000D+00  0.0000000000000D+00  0.0000000000000D+00
185  1.8400000000000D+00  0.0000000000000D+00  0.0000000000000D+00
186  1.8500000000000D+00  0.0000000000000D+00  0.0000000000000D+00
187  1.8600000000000D+00  0.0000000000000D+00  0.0000000000000D+00
188  1.8700000000000D+00  0.0000000000000D+00  0.0000000000000D+00
189  1.8800000000000D+00  0.0000000000000D+00  0.0000000000000D+00
190  1.8900000000000D+00  0.0000000000000D+00  0.0000000000000D+00
191  1.9000000000000D+00  0.0000000000000D+00  0.0000000000000D+00
192  1.9100000000000D+00  0.0000000000000D+00  0.0000000000000D+00
193  1.9200000000000D+00  0.0000000000000D+00  0.0000000000000D+00
194  1.9300000000000D+00  0.0000000000000D+00  0.0000000000000D+00
195  1.9400000000000D+00  0.0000000000000D+00  0.0000000000000D+00
196  1.9500000000000D+00  0.0000000000000D+00  0.0000000000000D+00
197  1.9600000000000D+00  0.0000000000000D+00  0.0000000000000D+00
198  1.9700000000000D+00  0.0000000000000D+00  0.0000000000000D+00
199  1.9800000000000D+00  0.0000000000000D+00  0.0000000000000D+00
200  1.9900000000000D+00  0.0000000000000D+00  0.0000000000000D+00
201  2.0000000000000D+00  0.0000000000000D+00  0.0000000000000D+00
202  2.0100000000000D+00  0.0000000000000D+00  0.0000000000000D+00
203  2.0200000000000D+00  0.0000000000000D+00  0.0000000000000D+00
204  2.0300000000000D+00  0.0000000000000D+00  0.0000000000000D+00
205  2.0400000000000D+00  0.0000000000000D+00  0.0000000000000D+00
206  2.0500000000000D+00  0.0000000000000D+00  0.0000000000000D+00
207  2.0600000000000D+00  0.0000000000000D+00  0.0000000000000D+00
208  2.0700000000000D+00  0.0000000000000D+00  0.0000000000000D+00
209  2.0800000000000D+00  0.0000000000000D+00  0.0000000000000D+00
210  2.0900000000000D+00  0.0000000000000D+00  0.0000000000000D+00
211  2.1000000000000D+00  0.0000000000000D+00  0.0000000000000D+00
212  2.1100000000000D+00  0.0000000000000D+00  0.0000000000000D+00
213  2.1200000000000D+00  0.0000000000000D+00  0.0000000000000D+00
214  2.1300000000000D+00  0.0000000000000D+00  0.0000000000000D+00
215  2.1400000000000D+00  0.0000000000000D+00  0.0000000000000D+00
216  2.1500000000000D+00  0.0000000000000D+00  0.0000000000000D+00
217  2.1600000000000D+00  0.0000000000000D+00  0.0000000000000D+00
218  2.1700000000000D+00  0.0000000000000D+00  0.0000000000000D+00
219  2.1800000000000D+00  0.0000000000000D+00  0.0000000000000D+00
220  2.1900000000000D+00  0.0000000000000D+00  0.0000000000000D+00
221  2.2000000000000D+00  0.0000000000000D+00  0.0000000000000D+00
222  2.2100000000000D+00  0.0000000000000D+00  0.0000000000000D+00
223  2.2200000000000D+00  0.0000000000000D+00  0.0000000000000D+00
224  2.2300000000000D+00  0.0000000000000D+00  0.0000000000000D+00
225  2.2400000000000D+00  0.0000000000000D+00  0.0000000000000D+00
226  2.2500000000000D+00  0.0000000000000D+00  0.0000000000000D+00
227  2.2600000000000D+00  0.0000000000000D+00  0.0000000000000D+00
228  2.2700000000000D+00  0.0000000000000D+00  0.0000000000000D+00
229  2.2800000000000D+00  0.0000000000000D+00  0.0000000000000D+00
230  2.2900000000000D+00  0.0000000000000D+00  0.0000000000000D+00
231  2.3000000000000D+00  0.0000000000000D+00  0.0000000000000D+00
232  2.3100000000000D+00  0.0000000000000D+00  0.0000000000000D+00
233  2.3200000000000D+00  0.0000000000000D+00  0.0000000000000D+00
234  2.3300000000000D+00  0.0000000000000D+00  0.0000000000000D+00
235  2.3400000000000D+00  0.0000000000000D+00  0.0000000000000D+00
236  2.3500000000000D+00  0.0000000000000D+00  0.0000000000000D+00
237  2.3600000000000D+00  0.0000000000000D+00  0.0000000000000D+00
238  2.3700000000000D+00  0.0000000000000D+00  0.0000000000000D+00
239  2.3800000000000D+00  0.0000000000000D+00  0.0000000000000D+00
240  2.3900000000000D+00  0.0000000000000D+00  0.0000000000000D+00
241  2.4000000000000D+00  0.0000000000000D+00  0.0000000000000D+00
242  2.4100000000000D+00  0.0000000000000D+00  0.0000000000000D+00
243  2.4200000000000D+00  0.0000000000000D+00  0.0000000000000D+00
244  2.4300000000000D+00  0.0000000000000D+00  0.0000000000000D+00
245  2.4400000000000D+00  0.0000000000000D+00  0.0000000000000D+00
246  2.4500000000000D+00  0.0000000000000D+00  0.0000000000000D+00
247  2.4600000000000D+00  0.0000000000000D+00  0.0000000000000D+00
248  2.4700000000000D+00  0.0000000000000D+00  0.0000000000000D+00
249  2.4800000000000D+00  0.0000000000000D+00  0.0000000000000D+00
250  2.4900000000000D+00  0.0000000000000D+00  0.0000000000000D+00
251  2.5000000000000D+00  0.0000000000000D+00  0.0000000000000D+00
252  2.5100000000000D+00  0.0000000000000D+00  0.0000000000000D+00
253  2.5200000000000D+00  0.0000000000000D+00  0.0000000000000D+00
254  2.5300000000000D+00  0.0000000000000D+00  0.0000000000000D+00
255  2.5400000000000D+00  0.0000000000000D+00  0.0000000000000D+00
256  2.5500000000000D+00  0.0000000000000D+00  0.0000000000000D+00
257  2.5600000000000D+00  0.0000000000000D+00  0.0000000000000D+00
258  2.5700000000000D+00  0.0000000000000D+00  0.0000000000000D+00
259  2.5800000000000D+00  0.0000000000000D+00  0.0000000000000D+00
260  2.5900000000000D+00  0.0000000000000D+00  0.0000000000000D+00
261  2.6000000000000D+00  0.0000000000000D+00  0.0000000000000D+00
262  2.6100000000000D+00  0.0000000000000D+00  0.0000000000000D+00
263  2.6200000000000D+00  0.0000000000000D+00  0.0000000000000D+00
264  2.6300000000000D+00  0.0000000000000D+00  0.0000000000000D+00
265  2.6400000000000D+00  0.0000000000000D+00  0.0000000000000D+00
266  2.6500000000000D+00  0.0000000000000D+00  0.0000000000000D+00
267  2.6600000000000D+00  0.0000000000000D+00  0.0000000000000D+00
268  2.6700000000000D+00  0.0000000000000D+00  0.0000000000000D+00
269  2.6800000000000D+00  0.0000000000000D+00  0.0000000000000D+00
270  2.6900000000000D+00  0.0000000000000D+00  0.0000000000000D+00
271  2.7000000000000D+00  0.0000000000000D+00  0.0000000000000D+00
272  2.7100000000000D+00  0.0000000000000D+00  0.0000000000000D+00
273  2.7200000000000D+00  0.0000000000000D+00  0.0000000000000D+00
274  2.7300000000000D+00  0.0000000000000D+00  0.0000000000000D+00
275  2.7400000000000D+00  0.0000000000000D+00  0.0000000000000D+00
276  2.7500000000000D+00  0.0000000000000D+00  0.0000000000000D+00
277  2.7600000000000D+00  0.0000000000000D+00  0.0000000000000D+00
278  2.7700000000000D+00  0.0000000000000D+00  0.0000000000000D+00
279  2.7800000000000D+00  0.0000000000000D+00  0.0000000000000D+00
280  2.7900000000000D+00  0.0000000000000D+00  0.0000000000000D+00
281  2.8000000000000D+00  0.0000000000000D+00  0.0000000000000D+00
282  2.8100000000000D+00  0.0000000000000D+00  0.0000000000000D+00
283  2.8200000000000D+00  0.0000000000000D+00  0.0000000000000D+00
284  2.8300000000000D+00  0.0000000000000D+00  0.0000000000000D+00
285  2.8400000000000D+00  0.0000000000000D+00  0.0000000000000D+00
286  2.8500000000000D+00  0.0000000000000D+00  0.0000000000000D+00
287  2.8600000000000D+00  0.0000000000000D+00  0.0000000000000D+00
288  2.8700000000000D+00  0.0000000000000D+00  0.0000000000000D+00
289  2.8800000000000D+00  0.0000000000000D+00  0.0000000000000D+00
290  2.8900000000000D+00  0.0000000000000D+00  0.0000000000000D+00
291  2.9000000000000D+00  0.0000000000000D+00  0.0000000000000D+00
292  2.9100000000000D+00  0.0000000000000D+00  0.0000000000000D+00
293  2.9200000000000D+00  0.0000000000000D+00  0.0000000000000D+00
294  2.9300000000000D+00  0.0000000000000D+00  0.0000000000000D+00
295  2.9400000000000D+00  0.0000000000000D+00  0.0000000000000D+00
296  2.9500000000000D+00  0.0000000000000D+00  0.0000000000000D+00
297  2.9600000000000D+00  0.0000000000000D+00  0.0000000000000D+00
298  2.9700000000000D+00  0.0000000000000D+00  0.0000000000000D+00
299  2.9800000000000D+00  0.0000000000000D+00  0.0000000000000D+00
300  2.9900000000000D+00  0.0000000000000D+00  0.0000000000000D+00
301  3.0000000000000D+00  0.0000000000000D+00  0.0000000000000D+00
302  3.0100000000000D+00  0.0000000000000D+00  0.0000000000000D+00
303  3.0200000000000D+00  0.0000000000000D+00  0.0000000000000D+00
304  3.0300000000000D+00  0.0000000000000D+00  0.0000000000000D+00
305  3.0400000000000D+00  0.0000000000000D+00  0.0000000000000D+00
306  3.0500000000000D+00  0.0000000000000D+00  0.0000000000000D+00
307  3.0600000000000D+00  0.0000000000000D+00  0.0000000000000D+00
308  3.0700000000000D+00  0.0000000000000D+00  0.0000000000000D+00
309  3.0800000000000D+00  0.0000000000000D+00  0.0000000000000D+00
310  3.0900000000000D+00  0.0000000000000D+00  0.0000000000000D+00
311  3.1000000000000D+00  0.0000000000000D+00  0.0000000000000D+00
312  3.1100000000000D+00  0.0000000000000D+00  0.0000000000000D+00
313  3.1200000000000D+00  0.0000000000000D+00  0.0000000000000D+00
314  3.1300000000000D+00  0.0000000000000D+00  0.0000000000000D+00
315  3.1400000000000D+00  0.0000000000000D+00  0.0000000000000D+00
316  3.1500000000000D+00  0.0000000000000D+00  0.0000000000000D+00
317  3.1600000000000D+00  0.0000000000000D+00  0.0000000000000D+00
318  3.1700000000000D+00  0.0000000000000D+00  0.0000000000000D+00
319  3.1800000000000D+00  0.0000000000000D+00  0.0000000000000D+00
320  3.1900000000000D+00  0.0000000000000D+00  0.0000000000000D+00
321  3.2000000000000D+00  0.0000000000000D+00  0.0000000000000D+00
322  3.2100000000000D+00  0.0000000000000D+00  0.0000000000000D+00
323  3.2200000000000D+00  0.0000000000000D+00  0.0000000000000D+00
324  3.2300000000000D+00  0.0000000000000D+00  0.0000000000000D+00
325  3.2400000000000D+00  0.0000000000000D+00  0.0000000000000D+00
326  3.2500000000000D+00  0.0000000000000D+00  0.0000000000000D+00
327  3.2600000000000D+00  0.0000000000000D+00  0.0000000000000D+00
328  3.2700000000000D+00  0.0000000000000D+00  0.0000000000000D+00
329  3.2800000000000D+00  0.0000000000000D+00  0.0000000000000D+00
330  3.2900000000000D+00  0.0000000000000D+00  0.0000000000000D+00
331  3.3000000000000D+00  0.0000000000000D+00  0.0000000000000D+00
332  3.3100000000000D+00  0.0000000000000D+00  0.0000000000000D+00
333  3.3200000000000D+00  0.0000000000000D+00  0.0000000000000D+00
334  3.3300000000000D+00  0.0000000000000D+00  0.0000000000000D+00
335  3.3400000000000D+00  0.0000000000000D+00  0.0000000000000D+00
336  3.3500000000000D+00  0.0000000000000D+00  0.0000000000000D+00
337  3.3600000000000D+00  0.0000000000000D+00  0.0000000000000D+00
338  3.3700000000000D+00  0.0000000000000D+00  0.0000000000000D+00
339  3.3800000000000D+00  0.0000000000000D+00  0.0000000000000D+00
340  3.3900000000000D+00  0.0000000000000D+00  0.0000000000000D+00
341  3.4000000000000D+00  0.0000000000000D+00  0.0000000000000D+00
342  3.4100000000000D+00  0.0000000000000D+00  0.0000000000000D+00
343  3.4200000000000D+00  0.0000000000000D+00  0.0000000000000D+00
344  3.4300000000000D+00  0.0000000000000D+00  0.0000000000000D+00
345  3.4400000000000D+00  0.0000000000000D+00  0.0000000000000D+00
346  3.4500000000000D+00  0.0000000000000D+00  0.0000000000000D+00
347  3.4600000000000D+00  0.0000000000000D+00  0.0000000000000D+00
348  3.4700000000000D+00  0.0000000000000D+00  0.0000000000000D+00
349  3.4800000000000D+00  0.0000000000000D+00  0.0000000000000D+00
350  3.4900000000000D+00  0.0000000000000D+00  0.0000000000000D+00
351  3.5000000000000D+00  0.0000000000000D+00  0.0000000000000D+00
352  3.5100000000000D+00  0.0000000000000D+00  0.0000000000000D+00
353  3.5200000000000D+00  0.0000000000000D+00  0.0000000000000D+00
354  3.5300000000000D+00  0.0000000000000D+00  0.0000000000000D+00
355  3.5400000000000D+00  0.0000000000000D+00  0.0000000000000D+00
356  3.5500000000000D+00  0.0000000000000D+00  0.0000000000000D+00
357  3.5600000000000D+00  0.0000000000000D+00  0.0000000000000D+00
358  3.5700000000000D+00  0.0000000000000D+00  0.0000000000000D+00
359  3.5800000000000D+00  0.0000000000000D+00  0.0000000000000D+00
360  3.5900000000000D+00  0.0000000000000D+00  0.0000000000000D+00
361  3.6000000000000D+00  0.0000000000000D+00  0.0000000000000D+00
362  3.6100000000000D+00  0.0000000000000D+00  0.0000000000000D+00
363  3.6200000000000D+00  0.0000000000000D+00  0.0000000000000D+00
364  3.6300000000000D+00  0.0000000000000D+00  0.0000000000000D+00
365  3.6400000000000D+00  0.0000000000000D+00  0.0000000000000D+00
366  3.6500000000000D+00  0.0000000000000D+00  0.0000000000000D+00
367  3.6600000000000D+00  0.0000000000000D+00  0.0000000000000D+00
368  3.6700000000000D+00  0.0000000000000D+00  0.0000000000000D+00
369  3.6800000000000D+00  0.0000000000000D+00  0.0000000000000D+00
370  3.6900000000000D+00  0.0000000000000D+00  0.0000000000000D+00
371  3.7000000000000D+00  0.0000000000000D+00  0.0000000000000D+00
372  3.7100000000000D+00  0.0000000000000D+00  0.0000000000000D+00
373  3.7200000000000D+00  0.0000000000000D+00  0.0000000000000D+00
374  3.7300000000000D+00  0.0000000000000D+00  0.0000000000000D+00
375  3.7400000000000D+00  0.0000000000000D+00  0.0000000000000D+00
376  3.7500000000000D+00  0.0000000000000D+00  0.0000000000000D+00
377  3.7600000000000D+00  0.0000000000000D+00  0.0000000000000D+00
378  3.7700000000000D+00  0.0000000000000D+00  0.0000000000000D+00
379  3.7800000000000D+00  0.0000000000000D+00  0.0000000000000D+00
380  3.7900000000000D+00  0.0000000000000D+00  0.0000000000000D+00
381  3.8000000000000D+00  0.0000000000000D+00  0.0000000000000D+00
382  3.8100000000000D+00  0.0000000000000D+00  0.0000000000000D+00
383  3.8200000000000D+00  0.0000000000000D+00  0.0000000000000D+00
384  3.8300000000000D+00  0.0000000000000D+00  0.0000000000000D+00
385  3.8400000000000D+00  0.0000000000000D+00  0.0000000000000D+00
386  3.8500000000000D+00  0.0000000000000D+00  0.0000000000000D+00
387  3.8600000000000D+00  0.0000000000000D+00  0.0000000000000D+00
388  3.8700000000000D+00  0.0000000000000D+00  0.0000000000000D+00
389  3.8800000000000D+00  0.0000000000000D+00  0.0000000000000D+00
390  3.8900000000000D+00  0.0000000000000D+00  0.0000000000000D+00
391  3.9000000000000D+00  0.0000000000000D+00  0.0000000000000D+00
392  3.9100000000000D+00  0.0000000000000D+00  0.0000000000000D+00
393  3.9200000000000D+00  0.0000000000000D+00  0.0000000000000D+00
394  3.9300000000000D+00  0.0000000000000D+00  0.0000000000000D+00
395  3.9400000000000D+00  0.0000000000000D+00  0.0000000000000D+00
396  3.9500000000000D+00  0.0000000000000D+00  0.0000000000000D+00
397  3.9600000000000D+00  0.0000000000000D+00  0.0000000000000D+00
398  3.9700000000000D+00  0.0000000000000D+00  0.0000000000000D+00
399  3.9800000000000D+00  0.0000000000000D+00  0.0000000000000D+00
400  3.9900000000000D+00  0.0000000000000D+00  0.0000000000000D+00
401  4.0000000000000D+00  0.0000000000000D+00  0.0000000000000D+00
402  4.0100000000000D+00  0.0000000000000D+00  0.0000000000000D+00
403  4.0200000000000D+00  0.0000000000000D+00  0.0000000000000D+00
404  4.0300000000000D+00  0.0000000000000D+00  0.0000000000000D+00
405  4.0400000000000D+00  0.0000000000000D+00  0.0000000000000D+00
406  4.0500000000000D+00  0.0000000000000D+00  0.0000000000000D+00
407  4.0600000000000D+00  0.0000000000000D+00  0.0000000000000D+00
408  4.0700000000000D+00  0.0000000000000D+00  0.0000000000000D+00
409  4.0800000000000D+00  0.0000000000000D+00  0.0000000000000D+00
410  4.0900000000000D+00  0.0000000000000D+00  0.0000000000000D+00
411  4.1000000000000D+00  0.0000000000000D+00  0.0000000000000D+00
412  4.1100000000000D+00  0.0000000000000D+00  0.0000000000000D+00
413  4.1200000000000D+00  0.0000000000000D+00  0.0000000000000D+00
414  4.1300000000000D+00  0.0000000000000D+00  0.0000000000000D+00
415  4.1400000000000D+00  0.0000000000000D+00  0.0000000000000D+00
416  4.1500000000000D+00  0.0000000000000D+00  0.0000000000000D+00
417  4.1600000000000D+00  0.0000000000000D+00  0.0000000000000D+00
418  4.1700000000000D+00  0.0000000000000D+00  0.0000000000000D+00
419  4.1800000000000D+00  0.0000000000000D+00  0.0000000000000D+00
420  4.1900000000000D+00  0.0000000000000D+00  0.0000000000000D+00
421  4.2000000000000D+00  0.0000000000000D+00  0.0000000000000D+00
422  4.2100000000000D+00  0.0000000000000D+00  0.0000000000000D+00
423  4.2200000000000D+00  0.0000000000000D+00  0.0000000000000D+00
424  4.2300000000000D+00  0.0000000000000D+00  0.0000000000000D+00
425  4.2400000000000D+00  0.0000000000000D+00  0.0000000000000D+00
426  4.2500000000000D+00  0.0000000000000D+00  0.0000000000000D+00
427  4.2600000000000D+00  0.0000000000000D+00  0.0000000000000D+00
428  4.2700000000000D+00  0.0000000000000D+00  0.0000000000000D+00
429  4.2800000000000D+00  0.0000000000000D+00  0.0000000000000D+00
430  4.2900000000000D+00  0.0000000000000D+00  0.0000000000000D+00
431  4.3000000000000D+00  0.0000000000000D+00  0.0000000000000D+00
432  4.3100000000000D+00  0.0000000000000D+00  0.0000000000000D+00
433  4.3200000000000D+00  0.0000000000000D+00  0.0000000000000D+00
434  4.3300000000000D+00  0.0000000000000D+00  0.0000000000000D+00
435  4.3400000000000D+00  0.0000000000000D+00  0.0000000000000D+00
436  4.3500000000000D+00  0.0000000000000D+00  0.0000000000000D+00
437  4.3600000000000D+00  0.0000000000000D+00  0.0000000000000D+00
438  4.3700000000000D+00  0.0000000000000D+00  0.0000000000000D+00
439  4.3800000000000D+00  0.0000000000000D+00  0.0000000000000D+00
440  4.3900000000000D+00  0.0000000000000D+00  0.0000000000000D+00
441  4.4000000000000D+00  0.0000000000000D+00  0.0000000000000D+00
442  4.4100000000000D+00  0.0000000000000D+00  0.0000000000000D+00
443  4.4200000000000D+00  0.0000000000000D+00  0.0000000000000D+00