<?xml version="1.0" encoding="UTF-8" ?>
<psml version="1.1" energy_unit="hartree" length_unit="bohr"
 uuid="c005a710-47ec-11e8-4db2-dfd0bff71539"
 xmlns="http://esl.cecam.org/PSML/ns/1.1">
<provenance creator="ONCVPSP-3.3.0+psml-3.3.0-73 (fully-relativistic)"
 date="2018-04-24">
<annotation action="semilocal-pseudopotential-generation"
 action-cont="projectors-generation" />
<input-file name="oncvpsp-input">
<![CDATA[# atsym z nc nv iexc psfile
Ni 28 3 4 4 both
# n l f
1 0 2.0
2 0 2.0
2 1 6.0
3 0 2.0
3 1 6.0
3 2 8.0
4 0 2.0
# lmax
2
# l rc ep ncon nbas qcut
0 1.25 0.0 4 8 9.7
1 1.35 0.0 4 8 9.7
2 1.65 0.0 4 8 9.7
# lloc lpopt rc5 dvloc0
4 5 1.2 0.0
# l nproj debl
0 2 1.0
1 2 2.8
2 2 1.0
# icmod fcfact
3 3 1.7
# epsh1 epsh2 depsh
-12.0 12.0 0.02
# rlmax drl
6.0 0.01
 0
]]>
</input-file>
</provenance>
<pseudo-atom-spec atomic-label="Ni" atomic-number="28" z-pseudo="18"
 flavor="Hamann&apos;s oncvpsp" relativity="dirac" spin-dft="no"
 core-corrections="yes">
<annotation pseudo-energy="-163.863642056" />
<exchange-correlation>
<annotation oncvpsp-xc-code="4" oncvpsp-xc-type="GGA -- Perdew-Burke-Ernzerhof" />
<libxc-info number-of-functionals="2">
<functional name="Perdew, Burke &amp; Ernzerhof (GGA)" type="exchange" id="101" />
<functional name="Perdew, Burke &amp; Ernzerhof (GGA)" type="correlation"
 id="130" />
</libxc-info>
</exchange-correlation>
<valence-configuration total-valence-charge="18">
<shell n="3" l="s" occupation="2" />
<shell n="3" l="p" occupation="6" />
<shell n="3" l="d" occupation="8" />
<shell n="4" l="s" occupation="2" />
</valence-configuration>
</pseudo-atom-spec>
<grid npts="457">
<annotation type="sampled from oncvpsp log grid"
 recipe="r(i:1..N) = r1*exp(a*(i-1)) + r=0; resampled"
 recipe-cont="r1: scale; a: step" scale="0.178571428571E-04"
 step="0.119285708653E-01" delta="0.500000000000E-02" rmax="44.1127774257" />
<grid-data>
  0.000000000000E+00  5.037260227087E-03  1.006153199362E-02  1.509390240677E-02
  2.009712055657E-02  2.520946187690E-02  3.051067215696E-02  3.562857378909E-02
  4.111161976253E-02  4.632012396247E-02  5.156966681787E-02  5.673334959985E-02
  6.241407314470E-02  6.784941587428E-02  7.288349463671E-02  7.829107623126E-02
  8.409987265294E-02  8.926843081494E-02  9.475463504026E-02  1.005780070250E-01
  1.067592682175E-01  1.119766932335E-01  1.174490986765E-01  1.231889456778E-01
  1.292093043559E-01  1.355238835779E-01  1.421470621764E-01  1.473260095757E-01
  1.526936453359E-01  1.582568440774E-01  1.640227308887E-01  1.699986904517E-01
  1.761923764999E-01  1.826117216210E-01  1.892649474162E-01  1.961605750303E-01
  2.033074360652E-01  2.107146838912E-01  2.158021792191E-01  2.210125070342E-01
  2.263486330040E-01  2.318135943992E-01  2.374105018224E-01  2.431425409784E-01
  2.490129744878E-01  2.550251437438E-01  2.611824708144E-01  2.674884603897E-01
  2.739467017774E-01  2.805608709451E-01  2.873347326132E-01  2.942721423974E-01
  3.013770490034E-01  3.086534964746E-01  3.161056264935E-01  3.237376807395E-01
  3.315540033033E-01  3.395590431590E-01  3.477573566971E-01  3.561536103172E-01
  3.647525830847E-01  3.735591694507E-01  3.825783820379E-01  3.918153544938E-01
  4.012753444127E-01  4.109637363282E-01  4.208860447781E-01  4.259366773154E-01
  4.310479174432E-01  4.362204924526E-01  4.414551383620E-01  4.467526000223E-01
  4.521136312226E-01  4.575389947973E-01  4.630294627348E-01  4.685858162877E-01
  4.742088460831E-01  4.798993522361E-01  4.856581444629E-01  4.914860421965E-01
  4.973838747028E-01  5.033524811993E-01  5.093927109737E-01  5.155054235054E-01
  5.216914885874E-01  5.279517864505E-01  5.342872078879E-01  5.406986543825E-01
  5.471870382351E-01  5.537532826939E-01  5.603983220863E-01  5.671231019513E-01
  5.739285791747E-01  5.808157221248E-01  5.877855107903E-01  5.948389369198E-01
  6.019770041628E-01  6.092007282128E-01  6.165111369513E-01  6.239092705948E-01
  6.313961818419E-01  6.389729360240E-01  6.466406112563E-01  6.544002985914E-01
  6.622531021745E-01  6.702001394006E-01  6.782425410734E-01  6.863814515662E-01
  6.946180289850E-01  7.029534453329E-01  7.113888866768E-01  7.199255533170E-01
  7.285646599568E-01  7.373074358763E-01  7.461551251068E-01  7.551089866081E-01
  7.641702944473E-01  7.733403379807E-01  7.826204220365E-01  7.920118671009E-01
  8.015160095061E-01  8.111342016202E-01  8.208678120397E-01  8.307182257841E-01
  8.406868444935E-01  8.507750866275E-01  8.609843876670E-01  8.713162003190E-01
  8.817719947228E-01  8.923532586595E-01  9.030614977634E-01  9.138982357366E-01
  9.248650145654E-01  9.359633947402E-01  9.471949554771E-01  9.585612949428E-01
  9.700640304821E-01  9.817047988479E-01  9.934852564341E-01  1.005407079511E+00
  1.017471964465E+00  1.029681628039E+00  1.042037807575E+00  1.054542261266E+00
  1.067196768402E+00  1.080003129622E+00  1.092963167178E+00  1.106078725184E+00
  1.119351669886E+00  1.132783889925E+00  1.146377296604E+00  1.160133824163E+00
  1.174055430053E+00  1.188144095214E+00  1.202401824356E+00  1.216830646249E+00
  1.231432614004E+00  1.246209805372E+00  1.261164323036E+00  1.276298294913E+00
  1.291613874451E+00  1.307113240945E+00  1.322798599836E+00  1.338672183034E+00
  1.354736249231E+00  1.370993084221E+00  1.387445001232E+00  1.404094341247E+00
  1.420943473342E+00  1.437994795022E+00  1.455250732562E+00  1.472713741353E+00
  1.490386306249E+00  1.508270941924E+00  1.526370193227E+00  1.544686635546E+00
  1.563222875173E+00  1.581981549675E+00  1.600965328271E+00  1.620176912210E+00
  1.639619035157E+00  1.659294463578E+00  1.679205997141E+00  1.699356469107E+00
  1.719748746736E+00  1.740385731697E+00  1.761270360478E+00  1.782405604803E+00
  1.803794472061E+00  1.825440005726E+00  1.847345285794E+00  1.869513429224E+00
  1.891947590375E+00  1.914650961459E+00  1.937626772997E+00  1.960878294273E+00
  1.984408833804E+00  2.008221739809E+00  2.032320400687E+00  2.056708245495E+00
  2.081388744441E+00  2.106365409375E+00  2.131641794287E+00  2.157221495819E+00
  2.183108153768E+00  2.209305451614E+00  2.235817117033E+00  2.262646922437E+00
  2.289798685507E+00  2.317276269733E+00  2.345083584969E+00  2.373224587989E+00
  2.401703283045E+00  2.430523722442E+00  2.459690007111E+00  2.489206287196E+00
  2.519076762643E+00  2.549305683794E+00  2.579897352000E+00  2.610856120224E+00
  2.642186393666E+00  2.673892630390E+00  2.705979341955E+00  2.738451094059E+00
  2.771312507187E+00  2.804568257274E+00  2.838223076361E+00  2.872281753277E+00
  2.906749134316E+00  2.941630123928E+00  2.976929685415E+00  3.012652841640E+00
  3.048804675740E+00  3.085390331849E+00  3.122415015831E+00  3.159883996021E+00
  3.197802603973E+00  3.236176235221E+00  3.275010350044E+00  3.314310474244E+00
  3.354082199935E+00  3.394331186334E+00  3.435063160570E+00  3.476283918497E+00
  3.517999325519E+00  3.560215317425E+00  3.602937901235E+00  3.646173156049E+00
  3.689927233922E+00  3.734206360729E+00  3.779016837058E+00  3.824365039102E+00
  3.870257419572E+00  3.916700508607E+00  3.963700914710E+00  4.011265325686E+00
  4.059400509595E+00  4.108113315710E+00  4.157410675498E+00  4.207299603604E+00
  4.257787198847E+00  4.308880645234E+00  4.360587212976E+00  4.412914259532E+00
  4.465869230647E+00  4.519459661414E+00  4.573693177351E+00  4.628577495479E+00
  4.684120425425E+00  4.740329870530E+00  4.797213828977E+00  4.854780394924E+00
  4.913037759664E+00  4.971994212779E+00  5.031658143333E+00  5.092038041053E+00
  5.153142497545E+00  5.214980207516E+00  5.277559970006E+00  5.340890689646E+00
  5.404981377922E+00  5.469841154457E+00  5.535479248311E+00  5.601904999290E+00
  5.669127859282E+00  5.737157393593E+00  5.806003282316E+00  5.875675321704E+00
  5.946183425565E+00  6.017537626671E+00  6.089748078191E+00  6.162825055130E+00
  6.236778955791E+00  6.311620303261E+00  6.387359746900E+00  6.464008063863E+00
  6.541576160629E+00  6.620075074557E+00  6.699515975451E+00  6.779910167157E+00
  6.861269089162E+00  6.943604318232E+00  7.026927570051E+00  7.111250700892E+00
  7.196585709303E+00  7.282944737814E+00  7.370340074668E+00  7.458784155564E+00
  7.548289565431E+00  7.638869040216E+00  7.730535468698E+00  7.823301894323E+00
  7.917181517055E+00  8.012187695259E+00  8.108333947603E+00  8.205633954974E+00
  8.304101562433E+00  8.403750781183E+00  8.504595790557E+00  8.606650940043E+00
  8.709930751324E+00  8.814449920340E+00  8.920223319384E+00  9.027265999217E+00
  9.135593191207E+00  9.245220309502E+00  9.356162953216E+00  9.468436908654E+00
  9.582058151558E+00  9.697042849377E+00  9.813407363569E+00  9.931168251932E+00
  1.005034227096E+01  1.017094637821E+01  1.029299773475E+01  1.041651370756E+01
  1.054151187205E+01  1.066801001452E+01  1.079602613469E+01  1.092557844831E+01
  1.105668538969E+01  1.118936561436E+01  1.132363800174E+01  1.145952165776E+01
  1.159703591765E+01  1.173620034866E+01  1.187703475285E+01  1.201955916988E+01
  1.216379387992E+01  1.230975940648E+01  1.245747651936E+01  1.260696623759E+01
  1.275824983244E+01  1.291134883043E+01  1.306628501639E+01  1.322308043659E+01
  1.338175740183E+01  1.354233849065E+01  1.370484655254E+01  1.386930471117E+01
  1.403573636770E+01  1.420416520412E+01  1.437461518657E+01  1.454711056880E+01
  1.472167589563E+01  1.489833600638E+01  1.507711603845E+01  1.525804143092E+01
  1.544113792809E+01  1.562643158322E+01  1.581394876222E+01  1.600371614737E+01
  1.619576074114E+01  1.639010987003E+01  1.658679118847E+01  1.678583268273E+01
  1.698726267493E+01  1.719110982702E+01  1.739740314495E+01  1.760617198269E+01
  1.781744604648E+01  1.803125539904E+01  1.824763046383E+01  1.846660202939E+01
  1.868820125375E+01  1.891245966879E+01  1.913940918482E+01  1.936908209503E+01
  1.960151108017E+01  1.983672921314E+01  2.007476996369E+01  2.031566720326E+01
  2.055945520970E+01  2.080616867221E+01  2.105584269628E+01  2.130851280864E+01
  2.156421496234E+01  2.182298554189E+01  2.208486136839E+01  2.234987970481E+01
  2.261807826127E+01  2.288949520040E+01  2.316416914281E+01  2.344213917252E+01
  2.372344484259E+01  2.400812618070E+01  2.429622369487E+01  2.458777837921E+01
  2.488283171976E+01  2.518142570040E+01  2.548360280880E+01  2.578940604251E+01
  2.609887891502E+01  2.641206546200E+01  2.672901024754E+01  2.704975837051E+01
  2.737435547096E+01  2.770284773661E+01  2.803528190945E+01  2.837170529236E+01
  2.871216575587E+01  2.905671174494E+01  2.940539228588E+01  2.975825699331E+01
  3.011535607723E+01  3.047674035016E+01  3.084246123436E+01  3.121257076917E+01
  3.158712161840E+01  3.196616707782E+01  3.234976108276E+01  3.273795821575E+01
  3.313081371434E+01  3.352838347891E+01  3.393072408066E+01  3.433789276963E+01
  3.474994748286E+01  3.516694685266E+01  3.558895021489E+01  3.601601761747E+01
  3.644820982888E+01  3.688558834682E+01  3.732821540699E+01  3.777615399187E+01
  3.822946783977E+01  3.868822145385E+01  3.915248011129E+01  3.962230987263E+01
  4.009777759110E+01  4.057895092220E+01  4.106589833326E+01  4.155868911326E+01
  4.205739338262E+01  4.256208210321E+01  4.307282708845E+01  4.358970101351E+01
  4.411277742567E+01
</grid-data>
</grid>
<valence-charge total-charge="18" is-unscreening-charge="yes"
 rescaled-to-z-pseudo="no">
<radfunc>
<data npts="457">
  1.582954395350E+01  1.583819373067E+01  1.586404601194E+01  1.590716064323E+01
  1.596707183326E+01  1.604579040333E+01  1.614602019088E+01  1.626065969087E+01
  1.640283906781E+01  1.655631078190E+01  1.672898818756E+01  1.691630142955E+01
  1.714215715560E+01  1.737742725260E+01  1.761182881762E+01  1.788104691153E+01
  1.819002638470E+01  1.848188147509E+01  1.880878659680E+01  1.917466958452E+01
  1.958382044598E+01  1.994541473293E+01  2.034023806845E+01  2.077100321682E+01
  2.124056934258E+01  2.175193170812E+01  2.230820556670E+01  2.275681350963E+01
  2.323387017652E+01  2.374076702644E+01  2.427889426388E+01  2.484962621690E+01
  2.545430378348E+01  2.609421354161E+01  2.677056308306E+01  2.748445209841E+01
  2.823683871197E+01  2.902850054415E+01  2.957837820772E+01  3.014606043115E+01
  3.073158303063E+01  3.133491180603E+01  3.195593379502E+01  3.259444785421E+01
  3.325015455259E+01  3.392264536874E+01  3.461139119212E+01  3.531573013912E+01
  3.603485470686E+01  3.676779830343E+01  3.751342121053E+01  3.827039605606E+01
  3.903719289829E+01  3.981206405147E+01  4.059302881465E+01  4.137785830177E+01
  4.216406061144E+01  4.294886661928E+01  4.372921672508E+01  4.450174893924E+01
  4.526278874957E+01  4.600834126838E+01  4.673408621997E+01  4.743537638951E+01
  4.810724021303E+01  4.874438924263E+01  4.934123126851E+01  4.962271120605E+01
  4.989188991613E+01  5.014799286389E+01  5.039023155770E+01  5.061780484911E+01
  5.082990037938E+01  5.102569617826E+01  5.120436242073E+01  5.136506334658E+01
  5.150695934740E+01  5.162920922489E+01  5.173097262358E+01  5.181141264024E+01
  5.186969861127E+01  5.190500907836E+01  5.191653493134E+01  5.190348272575E+01
  5.186507817154E+01  5.180056978709E+01  5.170923271152E+01  5.159037266592E+01
  5.144333005251E+01  5.126748417810E+01  5.106225758641E+01  5.082712048095E+01
  5.056159521806E+01  5.026526084683E+01  4.993775767012E+01  4.957879179830E+01
  4.918813966428E+01  4.876565246631E+01  4.831126050175E+01  4.782497735313E+01
  4.730690388495E+01  4.675723200778E+01  4.617624816424E+01  4.556433648959E+01
  4.492198159877E+01  4.424977095053E+01  4.354839673906E+01  4.281865726375E+01
  4.206145772846E+01  4.127781042306E+01  4.046883424249E+01  3.963575350124E+01
  3.877989600531E+01  3.790269034822E+01  3.700566240346E+01  3.609043099214E+01
  3.515870271232E+01  3.421226592469E+01  3.325298389872E+01  3.228278713327E+01
  3.130366487673E+01  3.031765588294E+01  2.932683845107E+01  2.833331981000E+01
  2.733922491987E+01  2.634668477579E+01  2.535782431048E+01  2.437475000410E+01
  2.339953731959E+01  2.243421809134E+01  2.148076800257E+01  2.054109429289E+01
  1.961702384133E+01  1.871029177186E+01  1.782253072761E+01  1.695526095607E+01
  1.610988134165E+01  1.528766151212E+01  1.448973513371E+01  1.371709449416E+01
  1.297058645585E+01  1.225090984058E+01  1.155861428602E+01  1.089410058981E+01
  1.025762253282E+01  9.649290147533E+00  9.069074372794E+00  8.516813011375E+00
  7.992217884125E+00  7.494883053545E+00  7.024293971444E+00  6.579837390488E+00
  6.160811868219E+00  5.766438685095E+00  5.395872995287E+00  5.048215030702E+00
  4.722521184653E+00  4.417814811657E+00  4.133096593910E+00  3.867354558538E+00
  3.619574205322E+00  3.388748131766E+00  3.173882881153E+00  2.974005012356E+00
  2.788166200205E+00  2.615447154568E+00  2.454959531990E+00  2.305846888793E+00
  2.167288027746E+00  2.038499702295E+00  1.918738827687E+00  1.807304186647E+00
  1.703537663374E+00  1.606825037712E+00  1.516596367982E+00  1.432325986989E+00
  1.353532131293E+00  1.279776219755E+00  1.210661793818E+00  1.145833129496E+00
  1.084973529843E+00  1.027803306942E+00  9.740761618493E-01  9.235702630792E-01
  8.760766984962E-01  8.313990089018E-01  7.893525724033E-01  7.497640840601E-01
  7.124710389487E-01  6.773212208824E-01  6.441721987553E-01  6.128908322276E-01
  5.833527882298E-01  5.554420695398E-01  5.290505564808E-01  5.040775625982E-01
  4.804294049976E-01  4.580189898744E-01  4.367654136194E-01  4.165935797635E-01
  3.974338319103E-01  3.792216027093E-01  3.618970788305E-01  3.454048818313E-01
  3.296937647319E-01  3.147163240622E-01  3.004287270870E-01  2.867904538738E-01
  2.737640538286E-01  2.613149162899E-01  2.494110547453E-01  2.380229042103E-01
  2.271231312914E-01  2.166864564408E-01  2.066894879003E-01  1.971105668245E-01
  1.879296230723E-01  1.791280411539E-01  1.706885358261E-01  1.625950368322E-01
  1.548325822933E-01  1.473872202664E-01  1.402459179986E-01  1.333964784180E-01
  1.268274634200E-01  1.205281235202E-01  1.144883334649E-01  1.086985334061E-01
  1.031496752647E-01  9.783317392706E-02  9.274086293384E-02  8.786495434189E-02
  8.319800245539E-02  7.873287114127E-02  7.446270446089E-02  7.038090036617E-02
  6.648108722508E-02  6.275710295599E-02  5.920297656547E-02  5.581291189723E-02
  5.258127341305E-02  4.950257383778E-02  4.657146351167E-02  4.378272130248E-02
  4.113124693721E-02  3.861205463341E-02  3.622026788172E-02  3.395111528962E-02
  3.179992735926E-02  2.976213409574E-02  2.783326334357E-02  2.600893975365E-02
  2.428488428731E-02  2.265691416842E-02  2.112094319899E-02  1.967298235843E-02
  1.830914061165E-02  1.702562585610E-02  1.581874594375E-02  1.468490971938E-02
  1.362062802272E-02  1.262251460807E-02  1.168728694102E-02  1.081176683835E-02
  9.992880923066E-03  9.227660872469E-03  8.513243443047E-03  7.846870261028E-03
  7.225887372725E-03  6.647744553222E-03  6.109994376169E-03  5.610291051086E-03
  5.146389037766E-03  4.716141450042E-03  4.317498263410E-03  3.948504342707E-03
  3.607297307352E-03  3.292105252526E-03  3.001244345124E-03  2.733116313472E-03
  2.486205849560E-03  2.259077942116E-03  2.050375158065E-03  1.858814889059E-03
  1.683186578613E-03  1.522348944225E-03  1.375227207506E-03  1.240810344042E-03
  1.118148363292E-03  1.006349627508E-03  9.045782173327E-04  8.120513504632E-04
  7.280368586394E-04  6.518507271208E-04  5.828546998782E-04  5.204539528891E-04
  4.640948372051E-04  4.132626928626E-04  3.674797342167E-04  3.263030068859E-04
  2.893224161972E-04  2.561588267942E-04  2.264622329134E-04  1.999099987180E-04
  1.762051680086E-04  1.550748425779E-04  1.362686284445E-04  1.195571491694E-04
  1.047306254347E-04  9.159752002365E-05  7.998324730126E-05  6.972894623686E-05
  6.069031594393E-05  5.273651263393E-05  4.574910679303E-05  3.962109929563E-05
  3.425599506802E-05  2.956693281360E-05  2.547586920927E-05  2.191281588480E-05
  1.881512740482E-05  1.612683838940E-05  1.379804783539E-05  1.178434863899E-05
  1.004630027022E-05  8.548942514632E-06  7.261348174985E-06  6.156212617390E-06
  5.209478051341E-06  4.399990450955E-06  3.709187054888E-06  3.120812421405E-06
  2.620661066521E-06  2.196344802878E-06  1.837082822919E-06  1.533512972259E-06
  1.277522407247E-06  1.062095927813E-06  8.811803114932E-07  7.295635462573E-07
  6.027678060641E-07  4.969545601757E-07  4.088405806387E-07  3.356238528774E-07
  2.749184021550E-07  2.246971054087E-07  1.832416359051E-07  1.490987612244E-07
  1.210422843736E-07  9.803998317238E-08  7.922496437185E-08  6.387090620993E-08
  5.137071630336E-08  4.121818097917E-08  3.299222746276E-08  2.634346189124E-08
  2.098268406453E-08  1.667111435706E-08  1.321209947404E-08  1.044409194760E-08
  8.234723627418E-09  6.475816133795E-09  5.079191507647E-09  3.973164311192E-09
  3.099612396049E-09  2.411537647098E-09  1.871040406300E-09  1.447642146825E-09
  1.116900460181E-09  8.592686825966E-10  6.591596562449E-10  5.041793195076E-10
  3.845011616260E-10  2.923571637963E-10  2.216247733416E-10  1.674229801602E-10
  1.261430210340E-10  9.474427159963E-11  7.093629094544E-11  5.294119791660E-11
  3.938334435832E-11  2.920172531693E-11  2.158066609666E-11  1.589515234319E-11
  1.166785260203E-11  8.535445822738E-12  6.222328557343E-12  4.520154794338E-12
  3.271969654122E-12  2.359948552772E-12  1.695956047725E-12  1.214301919561E-12
  8.662032368716E-13  6.155661264918E-13  4.357846494105E-13  3.073206285056E-13
  2.158808325254E-13  1.510493316929E-13  1.052653396295E-13  7.306226024162E-14
  5.050343605905E-14  3.476542973829E-14  2.383151220652E-14  1.626713717595E-14
  1.105615510001E-14  7.481837067834E-15  5.040816525768E-15  3.381108965033E-15
  2.257667124371E-15  1.500650868323E-15  9.928752702594E-16  6.538542791764E-16
  4.285625048835E-16  2.795565543812E-16  1.814774097701E-16  1.172323915217E-16
  7.535625388375E-17  4.819608286228E-17  3.066894210835E-17  1.941573637515E-17
  1.222785368273E-17  7.660567785347E-18  4.773738862351E-18  2.958799605459E-18
  1.823910530531E-18  1.118134747367E-18  6.816455400578E-19  4.132070750968E-19
  2.490531861998E-19  1.492456906761E-19  8.891327739212E-20  5.265698108186E-20
  3.099836728232E-20  1.813776621652E-20  1.054772985835E-20  6.095824387780E-21
  0.000000000000E+00  0.000000000000E+00  0.000000000000E+00  0.000000000000E+00
  0.000000000000E+00  0.000000000000E+00  0.000000000000E+00  0.000000000000E+00
  0.000000000000E+00  0.000000000000E+00  0.000000000000E+00  0.000000000000E+00
  0.000000000000E+00  0.000000000000E+00  0.000000000000E+00  0.000000000000E+00
  0.000000000000E+00  0.000000000000E+00  0.000000000000E+00  0.000000000000E+00
  0.000000000000E+00
</data>
</radfunc>
</valence-charge>
<pseudocore-charge matching-radius="0.387169322622"
 number-of-continuous-derivatives="4">
<annotation model-charge-form="Teter function with specified parameters" />
<radfunc>
<data npts="290">
  1.447195517553E+02  1.446927728257E+02  1.446127397255E+02  1.444792774643E+02
  1.442938446902E+02  1.440502422712E+02  1.437401393387E+02  1.433855469229E+02
  1.429459076675E+02  1.424715198141E+02  1.419379741846E+02  1.413594526083E+02
  1.406622288000E+02  1.399363294814E+02  1.392134970121E+02  1.383837688864E+02
  1.374321039697E+02  1.365337672035E+02  1.355282053232E+02  1.344035541149E+02
  1.331468868928E+02  1.320371205575E+02  1.308262365672E+02  1.295061157478E+02
  1.280682163451E+02  1.265036038729E+02  1.248029960452E+02  1.234325465598E+02
  1.219761078639E+02  1.204295268909E+02  1.187886425041E+02  1.170493216157E+02
  1.152075016048E+02  1.132592396480E+02  1.112007695624E+02  1.090285667328E+02
  1.067394216362E+02  1.043305223850E+02  1.026568894632E+02  1.009284414603E+02
  9.914476255714E+01  9.730558297401E+01  9.541079488771E+01  9.346046905618E+01
  9.145487207961E+01  8.939448420606E+01  8.728001756641E+01  8.511243469702E+01
  8.289296717975E+01  8.062313419805E+01  7.830476077339E+01  7.593999541083E+01
  7.353132684436E+01  7.108159953346E+01  6.859402752217E+01  6.607220623234E+01
  6.352012172358E+01  6.094215691673E+01  5.834309424473E+01  5.572811416905E+01
  5.310278898072E+01  5.047307129729E+01  4.784527667139E+01  4.522605974725E+01
  4.262238344054E+01  4.004148067838E+01  3.749080832191E+01  3.622918688707E+01
  3.497799300824E+01  3.373819631158E+01  3.251076879242E+01  3.129668242421E+01
  3.009690664721E+01  2.891240574127E+01  2.774413608826E+01  2.659304333094E+01
  2.546005943597E+01  2.434609967025E+01  2.325205950107E+01  2.217881143156E+01
  2.112720178478E+01  2.009804745069E+01  1.909213261177E+01  1.811020546464E+01
  1.715297495588E+01  1.622110755207E+01  1.531522406479E+01  1.443589655294E+01
  1.358364532534E+01  1.275893606788E+01  1.196217711996E+01  1.119371692575E+01
  1.045384168613E+01  9.742773237274E+00  9.060667182074E+00  8.407611299791E+00
  7.783624259164E+00  7.188654658937E+00  6.622580418635E+00  6.085208540723E+00
  5.576275263281E+00  5.095446619953E+00  4.642319421125E+00  4.216422667149E+00
  3.817219400888E+00  3.444109002927E+00  3.096429928575E+00  2.773462881184E+00
  2.474434411481E+00  2.198520927514E+00  1.944853094545E+00  1.712520598871E+00
  1.500577244104E+00  1.308046343108E+00  1.133926363521E+00  9.771967798267E-01
  8.368240802335E-01  7.117678724547E-01  6.009870287848E-01  5.034458079140E-01
  4.181198887053E-01  3.440022498490E-01  2.801088289711E-01  2.254838955037E-01
  1.792050734885E-01  1.403879535344E-01  1.081902374078E-01  8.181536421152E-02
  6.051557376172E-02  4.359437056626E-02  3.040836062547E-02  2.036844301307E-02
  1.294034867558E-02  7.644529926206E-03  4.055415474749E-03  1.800057276106E-03
  5.562067186527E-04  4.986841754859E-05  5.238982411930E-05  3.771537090902E-04
  8.759480332590E-04  1.435093514250E-03  1.971413095586E-03  2.428129332485E-03
  2.770775291461E-03  2.983201848233E-03  3.063759265354E-03  3.021723723658E-03
  2.874030240638E-03  2.642362390007E-03  2.350636776738E-03  2.022906730904E-03
  1.681695633149E-03  1.346756190367E-03  1.034238382995E-03  7.562362462624E-04
  5.206726433631E-04  3.314722028898E-04  1.889660112703E-04  9.046775489147E-05
  3.095995255067E-05  3.830722647804E-06  1.606057501970E-06  1.662954611571E-05
  4.165047291606E-05  7.029167827491E-05  9.737985873107E-05  1.191324165191E-04
  1.332058325015E-04  1.386201622714E-04  1.355820538766E-04  1.252341978715E-04
  1.093620538051E-04  9.008895369331E-05  6.958837187294E-05  4.983758508141E-05
  3.243062217756E-05  1.846095851284E-05  8.476573610555E-06  2.502514196815E-06
  1.196919846208E-07  5.838838850417E-07  2.966200074427E-06  6.295827785300E-06
  9.687585011236E-06  1.244042573928E-05  1.409801424669E-05  1.446816647265E-05
  1.360360556298E-05  1.175138001958E-05  9.281842207209E-06  6.609871183625E-06
  4.120886524684E-06  2.112253506197E-06  7.572992091657E-07  9.492418104109E-08
  0.000000000000E+00  0.000000000000E+00  0.000000000000E+00  0.000000000000E+00
  0.000000000000E+00  0.000000000000E+00  0.000000000000E+00  0.000000000000E+00
  0.000000000000E+00  0.000000000000E+00  0.000000000000E+00  0.000000000000E+00
  0.000000000000E+00  0.000000000000E+00  0.000000000000E+00  0.000000000000E+00
  0.000000000000E+00  0.000000000000E+00  0.000000000000E+00  0.000000000000E+00
  0.000000000000E+00  0.000000000000E+00  0.000000000000E+00  0.000000000000E+00
  0.000000000000E+00  0.000000000000E+00  0.000000000000E+00  0.000000000000E+00
  0.000000000000E+00  0.000000000000E+00  0.000000000000E+00  0.000000000000E+00
  0.000000000000E+00  0.000000000000E+00  0.000000000000E+00  0.000000000000E+00
  0.000000000000E+00  0.000000000000E+00  0.000000000000E+00  0.000000000000E+00
  0.000000000000E+00  0.000000000000E+00  0.000000000000E+00  0.000000000000E+00
  0.000000000000E+00  0.000000000000E+00  0.000000000000E+00  0.000000000000E+00
  0.000000000000E+00  0.000000000000E+00  0.000000000000E+00  0.000000000000E+00
  0.000000000000E+00  0.000000000000E+00  0.000000000000E+00  0.000000000000E+00
  0.000000000000E+00  0.000000000000E+00  0.000000000000E+00  0.000000000000E+00
  0.000000000000E+00  0.000000000000E+00  0.000000000000E+00  0.000000000000E+00
  0.000000000000E+00  0.000000000000E+00  0.000000000000E+00  0.000000000000E+00
  0.000000000000E+00  0.000000000000E+00  0.000000000000E+00  0.000000000000E+00
  0.000000000000E+00  0.000000000000E+00  0.000000000000E+00  0.000000000000E+00
  0.000000000000E+00  0.000000000000E+00  0.000000000000E+00  0.000000000000E+00
  0.000000000000E+00  0.000000000000E+00  0.000000000000E+00  0.000000000000E+00
  0.000000000000E+00  0.000000000000E+00  0.000000000000E+00  0.000000000000E+00
  0.000000000000E+00  0.000000000000E+00  0.000000000000E+00  0.000000000000E+00
  0.000000000000E+00  0.000000000000E+00
</data>
</radfunc>
</pseudocore-charge>
<semilocal-potentials set="scalar_relativistic">
<slps n="3" l="s" rc="1.26116432304">
<radfunc>
<data npts="290">
 -2.559943970300E+01 -2.559977533361E+01 -2.560077837220E+01 -2.560245091878E+01
 -2.560477453392E+01 -2.560782665480E+01 -2.561171128654E+01 -2.561615227074E+01
 -2.562165691974E+01 -2.562759474083E+01 -2.563427055571E+01 -2.564150602096E+01
 -2.565022157257E+01 -2.565929006533E+01 -2.566831434223E+01 -2.567866549340E+01
 -2.569052713982E+01 -2.570171295333E+01 -2.571422025465E+01 -2.572819063664E+01
 -2.574377667245E+01 -2.575751803311E+01 -2.577248554484E+01 -2.578877051298E+01
 -2.580646681852E+01 -2.582566982828E+01 -2.584647492963E+01 -2.586318650117E+01
 -2.588088987300E+01 -2.589962089390E+01 -2.591941244219E+01 -2.594029339900E+01
 -2.596228743955E+01 -2.598541161785E+01 -2.600967471774E+01 -2.603507534127E+01
 -2.606159970300E+01 -2.608921909747E+01 -2.610821823565E+01 -2.612766496649E+01
 -2.614753580296E+01 -2.616780209790E+01 -2.618842948267E+01 -2.620937726236E+01
 -2.623059776601E+01 -2.625203565045E+01 -2.627362715698E+01 -2.629529932026E+01
 -2.631696912951E+01 -2.633854264267E+01 -2.635991405497E+01 -2.638096472429E+01
 -2.640156215668E+01 -2.642155895676E+01 -2.644079174899E+01 -2.645908007745E+01
 -2.647622529341E+01 -2.649200944190E+01 -2.650619416044E+01 -2.651851960532E+01
 -2.652870342255E+01 -2.653643978332E+01 -2.654139850510E+01 -2.654322428183E+01
 -2.654153604799E+01 -2.653592650247E+01 -2.652596181918E+01 -2.651920345388E+01
 -2.651118157157E+01 -2.650183448976E+01 -2.649109889870E+01 -2.647890988168E+01
 -2.646520094028E+01 -2.644990402453E+01 -2.643294956861E+01 -2.641426653186E+01
 -2.639378244577E+01 -2.637142346689E+01 -2.634711443612E+01 -2.632077894463E+01
 -2.629233940669E+01 -2.626171713976E+01 -2.622883245224E+01 -2.619360473921E+01
 -2.615595258664E+01 -2.611579388441E+01 -2.607304594863E+01 -2.602762565382E+01
 -2.597944957516E+01 -2.592843414149E+01 -2.587449579939E+01 -2.581755118863E+01
 -2.575751732945E+01 -2.569431182167E+01 -2.562785305596E+01 -2.555806043694E+01
 -2.548485461812E+01 -2.540815774808E+01 -2.532789372720E+01 -2.524398847415E+01
 -2.515637020079E+01 -2.506496969410E+01 -2.496972060333E+01 -2.487055973040E+01
 -2.476742732125E+01 -2.466026735576E+01 -2.454902783372E+01 -2.443366105412E+01
 -2.431412388525E+01 -2.419037802324E+01 -2.406239023661E+01 -2.393013259512E+01
 -2.379358268133E+01 -2.365272378390E+01 -2.350754507224E+01 -2.335804175266E+01
 -2.320421520701E+01 -2.304607311519E+01 -2.288362956386E+01 -2.271690514429E+01
 -2.254592704278E+01 -2.237072912810E+01 -2.219135204079E+01 -2.200784329026E+01
 -2.182025736623E+01 -2.162865587244E+01 -2.143310769149E+01 -2.123368919149E+01
 -2.103048448692E+01 -2.082358576831E+01 -2.061309371796E+01 -2.039911803196E+01
 -2.018177807187E+01 -1.996120367329E+01 -1.973753614188E+01 -1.951092947151E+01
 -1.928155182213E+01 -1.904958729799E+01 -1.881523806851E+01 -1.857872687429E+01
 -1.834029995912E+01 -1.810023046521E+01 -1.785882232167E+01 -1.761641464715E+01
 -1.737338667461E+01 -1.713016319096E+01 -1.688722046615E+01 -1.664509262664E+01
 -1.640437840710E+01 -1.616574819283E+01 -1.592995124434E+01 -1.569782297530E+01
 -1.547029213666E+01 -1.524838774261E+01 -1.503324556014E+01 -1.482611397282E+01