<?xml version="1.0" encoding="UTF-8" ?>
<psml version="1.1" energy_unit="hartree" length_unit="bohr"
 uuid="eb916040-5165-11e8-4c05-753ddffb30d0"
 xmlns="http://esl.cecam.org/PSML/ns/1.1">
<provenance creator="ONCVPSP-3.3.0+psml-3.3.0-73 (fully-relativistic)"
 date="2018-05-06">
<annotation action="semilocal-pseudopotential-generation"
 action-cont="projectors-generation" />
<input-file name="oncvpsp-input">
<![CDATA[# atsym z nc nv iexc psfile
Ni 28 3 4 4 both
# n l f
1 0 2.0
2 0 2.0
2 1 6.0
3 0 2.0
3 1 6.0
3 2 8.0
4 0 2.0
# lmax
2
# l rc ep ncon nbas qcut
0 1.2 0.0 4 8 10.2
1 1.25 0.0 4 8 10.0
2 1.55 0.0 4 8 10.0
# lloc lpopt rc5 dvloc0
4 5 1.2 0.0
# l nproj debl
0 2 1.0
1 2 2.8
2 2 1.0
# icmod fcfact
3 3 1.7
# epsh1 epsh2 depsh
-12.0 12.0 0.02
# rlmax drl
6.0 0.01
 0
]]>
</input-file>
</provenance>
<pseudo-atom-spec atomic-label="Ni" atomic-number="28" z-pseudo="18"
 flavor="Hamann&apos;s oncvpsp" relativity="dirac" spin-dft="no"
 core-corrections="yes">
<annotation pseudo-energy="-165.027867347" />
<exchange-correlation>
<annotation oncvpsp-xc-code="4" oncvpsp-xc-type="GGA -- Perdew-Burke-Ernzerhof" />
<libxc-info number-of-functionals="2">
<functional name="Perdew, Burke &amp; Ernzerhof (GGA)" type="exchange" id="101" />
<functional name="Perdew, Burke &amp; Ernzerhof (GGA)" type="correlation"
 id="130" />
</libxc-info>
</exchange-correlation>
<valence-configuration total-valence-charge="18">
<shell n="3" l="s" occupation="2" />
<shell n="3" l="p" occupation="6" />
<shell n="3" l="d" occupation="8" />
<shell n="4" l="s" occupation="2" />
</valence-configuration>
</pseudo-atom-spec>
<grid npts="457">
<annotation type="sampled from oncvpsp log grid"
 recipe="r(i:1..N) = r1*exp(a*(i-1)) + r=0; resampled"
 recipe-cont="r1: scale; a: step" scale="0.178571428571E-04"
 step="0.119285708653E-01" delta="0.500000000000E-02" rmax="44.1127774257" />
<grid-data>
  0.000000000000E+00  5.037260227087E-03  1.006153199362E-02  1.509390240677E-02
  2.009712055657E-02  2.520946187690E-02  3.051067215696E-02  3.562857378909E-02
  4.111161976253E-02  4.632012396247E-02  5.156966681787E-02  5.673334959985E-02
  6.241407314470E-02  6.784941587428E-02  7.288349463671E-02  7.829107623126E-02
  8.409987265294E-02  8.926843081494E-02  9.475463504026E-02  1.005780070250E-01
  1.067592682175E-01  1.119766932335E-01  1.174490986765E-01  1.231889456778E-01
  1.292093043559E-01  1.355238835779E-01  1.421470621764E-01  1.473260095757E-01
  1.526936453359E-01  1.582568440774E-01  1.640227308887E-01  1.699986904517E-01
  1.761923764999E-01  1.826117216210E-01  1.892649474162E-01  1.961605750303E-01
  2.033074360652E-01  2.107146838912E-01  2.158021792191E-01  2.210125070342E-01
  2.263486330040E-01  2.318135943992E-01  2.374105018224E-01  2.431425409784E-01
  2.490129744878E-01  2.550251437438E-01  2.611824708144E-01  2.674884603897E-01
  2.739467017774E-01  2.805608709451E-01  2.873347326132E-01  2.942721423974E-01
  3.013770490034E-01  3.086534964746E-01  3.161056264935E-01  3.237376807395E-01
  3.315540033033E-01  3.395590431590E-01  3.477573566971E-01  3.561536103172E-01
  3.647525830847E-01  3.735591694507E-01  3.825783820379E-01  3.918153544938E-01
  4.012753444127E-01  4.109637363282E-01  4.208860447781E-01  4.259366773154E-01
  4.310479174432E-01  4.362204924526E-01  4.414551383620E-01  4.467526000223E-01
  4.521136312226E-01  4.575389947973E-01  4.630294627348E-01  4.685858162877E-01
  4.742088460831E-01  4.798993522361E-01  4.856581444629E-01  4.914860421965E-01
  4.973838747028E-01  5.033524811993E-01  5.093927109737E-01  5.155054235054E-01
  5.216914885874E-01  5.279517864505E-01  5.342872078879E-01  5.406986543825E-01
  5.471870382351E-01  5.537532826939E-01  5.603983220863E-01  5.671231019513E-01
  5.739285791747E-01  5.808157221248E-01  5.877855107903E-01  5.948389369198E-01
  6.019770041628E-01  6.092007282128E-01  6.165111369513E-01  6.239092705948E-01
  6.313961818419E-01  6.389729360240E-01  6.466406112563E-01  6.544002985914E-01
  6.622531021745E-01  6.702001394006E-01  6.782425410734E-01  6.863814515662E-01
  6.946180289850E-01  7.029534453329E-01  7.113888866768E-01  7.199255533170E-01
  7.285646599568E-01  7.373074358763E-01  7.461551251068E-01  7.551089866081E-01
  7.641702944473E-01  7.733403379807E-01  7.826204220365E-01  7.920118671009E-01
  8.015160095061E-01  8.111342016202E-01  8.208678120397E-01  8.307182257841E-01
  8.406868444935E-01  8.507750866275E-01  8.609843876670E-01  8.713162003190E-01
  8.817719947228E-01  8.923532586595E-01  9.030614977634E-01  9.138982357366E-01
  9.248650145654E-01  9.359633947402E-01  9.471949554771E-01  9.585612949428E-01
  9.700640304821E-01  9.817047988479E-01  9.934852564341E-01  1.005407079511E+00
  1.017471964465E+00  1.029681628039E+00  1.042037807575E+00  1.054542261266E+00
  1.067196768402E+00  1.080003129622E+00  1.092963167178E+00  1.106078725184E+00
  1.119351669886E+00  1.132783889925E+00  1.146377296604E+00  1.160133824163E+00
  1.174055430053E+00  1.188144095214E+00  1.202401824356E+00  1.216830646249E+00
  1.231432614004E+00  1.246209805372E+00  1.261164323036E+00  1.276298294913E+00
  1.291613874451E+00  1.307113240945E+00  1.322798599836E+00  1.338672183034E+00
  1.354736249231E+00  1.370993084221E+00  1.387445001232E+00  1.404094341247E+00
  1.420943473342E+00  1.437994795022E+00  1.455250732562E+00  1.472713741353E+00
  1.490386306249E+00  1.508270941924E+00  1.526370193227E+00  1.544686635546E+00
  1.563222875173E+00  1.581981549675E+00  1.600965328271E+00  1.620176912210E+00
  1.639619035157E+00  1.659294463578E+00  1.679205997141E+00  1.699356469107E+00
  1.719748746736E+00  1.740385731697E+00  1.761270360478E+00  1.782405604803E+00
  1.803794472061E+00  1.825440005726E+00  1.847345285794E+00  1.869513429224E+00
  1.891947590375E+00  1.914650961459E+00  1.937626772997E+00  1.960878294273E+00
  1.984408833804E+00  2.008221739809E+00  2.032320400687E+00  2.056708245495E+00
  2.081388744441E+00  2.106365409375E+00  2.131641794287E+00  2.157221495819E+00
  2.183108153768E+00  2.209305451614E+00  2.235817117033E+00  2.262646922437E+00
  2.289798685507E+00  2.317276269733E+00  2.345083584969E+00  2.373224587989E+00
  2.401703283045E+00  2.430523722442E+00  2.459690007111E+00  2.489206287196E+00
  2.519076762643E+00  2.549305683794E+00  2.579897352000E+00  2.610856120224E+00
  2.642186393666E+00  2.673892630390E+00  2.705979341955E+00  2.738451094059E+00
  2.771312507187E+00  2.804568257274E+00  2.838223076361E+00  2.872281753277E+00
  2.906749134316E+00  2.941630123928E+00  2.976929685415E+00  3.012652841640E+00
  3.048804675740E+00  3.085390331849E+00  3.122415015831E+00  3.159883996021E+00
  3.197802603973E+00  3.236176235221E+00  3.275010350044E+00  3.314310474244E+00
  3.354082199935E+00  3.394331186334E+00  3.435063160570E+00  3.476283918497E+00
  3.517999325519E+00  3.560215317425E+00  3.602937901235E+00  3.646173156049E+00
  3.689927233922E+00  3.734206360729E+00  3.779016837058E+00  3.824365039102E+00
  3.870257419572E+00  3.916700508607E+00  3.963700914710E+00  4.011265325686E+00
  4.059400509595E+00  4.108113315710E+00  4.157410675498E+00  4.207299603604E+00
  4.257787198847E+00  4.308880645234E+00  4.360587212976E+00  4.412914259532E+00
  4.465869230647E+00  4.519459661414E+00  4.573693177351E+00  4.628577495479E+00
  4.684120425425E+00  4.740329870530E+00  4.797213828977E+00  4.854780394924E+00
  4.913037759664E+00  4.971994212779E+00  5.031658143333E+00  5.092038041053E+00
  5.153142497545E+00  5.214980207516E+00  5.277559970006E+00  5.340890689646E+00
  5.404981377922E+00  5.469841154457E+00  5.535479248311E+00  5.601904999290E+00
  5.669127859282E+00  5.737157393593E+00  5.806003282316E+00  5.875675321704E+00
  5.946183425565E+00  6.017537626671E+00  6.089748078191E+00  6.162825055130E+00
  6.236778955791E+00  6.311620303261E+00  6.387359746900E+00  6.464008063863E+00
  6.541576160629E+00  6.620075074557E+00  6.699515975451E+00  6.779910167157E+00
  6.861269089162E+00  6.943604318232E+00  7.026927570051E+00  7.111250700892E+00
  7.196585709303E+00  7.282944737814E+00  7.370340074668E+00  7.458784155564E+00
  7.548289565431E+00  7.638869040216E+00  7.730535468698E+00  7.823301894323E+00
  7.917181517055E+00  8.012187695259E+00  8.108333947603E+00  8.205633954974E+00
  8.304101562433E+00  8.403750781183E+00  8.504595790557E+00  8.606650940043E+00
  8.709930751324E+00  8.814449920340E+00  8.920223319384E+00  9.027265999217E+00
  9.135593191207E+00  9.245220309502E+00  9.356162953216E+00  9.468436908654E+00
  9.582058151558E+00  9.697042849377E+00  9.813407363569E+00  9.931168251932E+00
  1.005034227096E+01  1.017094637821E+01  1.029299773475E+01  1.041651370756E+01
  1.054151187205E+01  1.066801001452E+01  1.079602613469E+01  1.092557844831E+01
  1.105668538969E+01  1.118936561436E+01  1.132363800174E+01  1.145952165776E+01
  1.159703591765E+01  1.173620034866E+01  1.187703475285E+01  1.201955916988E+01
  1.216379387992E+01  1.230975940648E+01  1.245747651936E+01  1.260696623759E+01
  1.275824983244E+01  1.291134883043E+01  1.306628501639E+01  1.322308043659E+01
  1.338175740183E+01  1.354233849065E+01  1.370484655254E+01  1.386930471117E+01
  1.403573636770E+01  1.420416520412E+01  1.437461518657E+01  1.454711056880E+01
  1.472167589563E+01  1.489833600638E+01  1.507711603845E+01  1.525804143092E+01
  1.544113792809E+01  1.562643158322E+01  1.581394876222E+01  1.600371614737E+01
  1.619576074114E+01  1.639010987003E+01  1.658679118847E+01  1.678583268273E+01
  1.698726267493E+01  1.719110982702E+01  1.739740314495E+01  1.760617198269E+01
  1.781744604648E+01  1.803125539904E+01  1.824763046383E+01  1.846660202939E+01
  1.868820125375E+01  1.891245966879E+01  1.913940918482E+01  1.936908209503E+01
  1.960151108017E+01  1.983672921314E+01  2.007476996369E+01  2.031566720326E+01
  2.055945520970E+01  2.080616867221E+01  2.105584269628E+01  2.130851280864E+01
  2.156421496234E+01  2.182298554189E+01  2.208486136839E+01  2.234987970481E+01
  2.261807826127E+01  2.288949520040E+01  2.316416914281E+01  2.344213917252E+01
  2.372344484259E+01  2.400812618070E+01  2.429622369487E+01  2.458777837921E+01
  2.488283171976E+01  2.518142570040E+01  2.548360280880E+01  2.578940604251E+01
  2.609887891502E+01  2.641206546200E+01  2.672901024754E+01  2.704975837051E+01
  2.737435547096E+01  2.770284773661E+01  2.803528190945E+01  2.837170529236E+01
  2.871216575587E+01  2.905671174494E+01  2.940539228588E+01  2.975825699331E+01
  3.011535607723E+01  3.047674035016E+01  3.084246123436E+01  3.121257076917E+01
  3.158712161840E+01  3.196616707782E+01  3.234976108276E+01  3.273795821575E+01
  3.313081371434E+01  3.352838347891E+01  3.393072408066E+01  3.433789276963E+01
  3.474994748286E+01  3.516694685266E+01  3.558895021489E+01  3.601601761747E+01
  3.644820982888E+01  3.688558834682E+01  3.732821540699E+01  3.777615399187E+01
  3.822946783977E+01  3.868822145385E+01  3.915248011129E+01  3.962230987263E+01
  4.009777759110E+01  4.057895092220E+01  4.106589833326E+01  4.155868911326E+01
  4.205739338262E+01  4.256208210321E+01  4.307282708845E+01  4.358970101351E+01
  4.411277742567E+01
</grid-data>
</grid>
<valence-charge total-charge="18" is-unscreening-charge="yes"
 rescaled-to-z-pseudo="no">
<radfunc>
<data npts="457">
  1.333773902899E+01  1.334749013079E+01  1.337663470848E+01  1.342524220974E+01
  1.349279074944E+01  1.358155226560E+01  1.369458265279E+01  1.382388120382E+01
  1.398426801669E+01  1.415742651017E+01  1.435229546238E+01  1.456373023391E+01
  1.481873846539E+01  1.508445446797E+01  1.534926852431E+01  1.565351312295E+01
  1.600281892036E+01  1.633288887725E+01  1.670273970916E+01  1.711686487155E+01
  1.758018099759E+01  1.798983477867E+01  1.843733573163E+01  1.892581163490E+01
  1.945856631504E+01  2.003906927246E+01  2.067093872395E+01  2.118079723456E+01
  2.172326534347E+01  2.229997329035E+01  2.291255491626E+01  2.356263107503E+01
  2.425178957037E+01  2.498156111619E+01  2.575339076991E+01  2.656860424365E+01
  2.742836845802E+01  2.833364567155E+01  2.896280915361E+01  2.961265323103E+01
  3.028323914849E+01  3.097454680071E+01  3.168646422941E+01  3.241877628348E+01
  3.317115242227E+01  3.394313365111E+01  3.473411858886E+01  3.554334868147E+01
  3.636989259231E+01  3.721262982012E+01  3.807023361964E+01  3.894115332824E+01
  3.982359623480E+01  4.071550916476E+01  4.161455999873E+01  4.251811939039E+01
  4.342324300383E+01  4.432665465023E+01  4.522473076884E+01  4.611348676719E+01
  4.698856580905E+01  4.784523071510E+01  4.867835971848E+01  4.948244689294E+01
  5.025160814268E+01  5.097959370583E+01  5.165980817378E+01  5.197985250770E+01
  5.228533906073E+01  5.257536048678E+01  5.284899496531E+01  5.310530798953E+01
  5.334335434263E+01  5.356218026834E+01  5.376082584166E+01  5.393832754472E+01
  5.409372105193E+01  5.422604422728E+01  5.433434033593E+01  5.441766147038E+01
  5.447507219024E+01  5.450565337304E+01  5.450850627146E+01  5.448275677048E+01
  5.442755983560E+01  5.434210414124E+01  5.422561686544E+01  5.407736863469E+01
  5.389667859965E+01  5.368291961958E+01  5.343552353027E+01  5.315398646704E+01
  5.283787421103E+01  5.248682752388E+01  5.210056743238E+01  5.167890042172E+01
  5.122172349248E+01  5.072902903371E+01  5.020090946162E+01  4.963756157065E+01
  4.903929054187E+01  4.840651355142E+01  4.773976292071E+01  4.703968874920E+01
  4.630706097058E+01  4.554277077359E+01  4.474783133050E+01  4.392337777815E+01
  4.307066640008E+01  4.219107296243E+01  4.128609016143E+01  4.035732414719E+01
  3.940649009552E+01  3.843540680877E+01  3.744599033595E+01  3.644024661364E+01
  3.542026314087E+01  3.438819971390E+01  3.334627826037E+01  3.229677182623E+01
  3.124199278349E+01  3.018428034114E+01  2.912598745637E+01  2.806946725695E+01
  2.701705909920E+01  2.597107439787E+01  2.493378237543E+01  2.390739588698E+01
  2.289405748405E+01  2.189582588474E+01  2.091466301980E+01  1.995242182235E+01
  1.901083492480E+01  1.809150441839E+01  1.719589281977E+01  1.632531537390E+01
  1.548093380515E+01  1.466375160720E+01  1.387461093884E+01  1.311419116712E+01
  1.238300907124E+01  1.168142069262E+01  1.100962478677E+01  1.036766780447E+01
  9.755450301609E+00  9.172734651750E+00  8.619153911872E+00  8.094221672403E+00
  7.597342706667E+00  7.127824223807E+00  6.684887523065E+00  6.267679846462E+00
  5.875286231524E+00  5.506741175701E+00  5.161039939312E+00  4.837149618375E+00
  4.534020629648E+00  4.250597854546E+00  3.985828371513E+00  3.738668139998E+00
  3.508086758955E+00  3.293071454497E+00  3.092632954447E+00  2.905810656942E+00
  2.731677258576E+00  2.569342793676E+00  2.417958104925E+00  2.276717765365E+00
  2.144862469145E+00  2.021680903542E+00  1.906511108711E+00  1.798741324940E+00
  1.697810321021E+00  1.603207192497E+00  1.514470615999E+00  1.431187546380E+00
  1.352991347420E+00  1.279557594704E+00  1.210592531127E+00  1.145817782269E+00
  1.084969968015E+00  1.027800100613E+00  9.740730907327E-01  9.235672414587E-01
  8.760737339050E-01  8.313961078428E-01  7.893497404350E-01  7.497613258771E-01
  7.124683584567E-01  6.773186212682E-01  6.441696825520E-01  6.128884013753E-01
  5.833504441316E-01  5.554398131137E-01  5.290483882083E-01  5.040754825683E-01
  4.804274129482E-01  4.580170852296E-01  4.367635955244E-01  4.165918471166E-01
  3.974321833922E-01  3.792200368095E-01  3.618955938724E-01  3.454034759943E-01
  3.296924360722E-01  3.147150705314E-01  3.004275465492E-01  2.867893441215E-01
  2.737630125970E-01  2.613139412695E-01  2.494101435943E-01  2.380220545648E-01
  2.271223407758E-01  2.166857226764E-01  2.066888085136E-01  1.971099394545E-01
  1.879290453771E-01  1.791275108169E-01  1.706880505614E-01  1.625945943896E-01
  1.548321804624E-01  1.473868568811E-01  1.402455909400E-01  1.333961856182E-01
  1.268272028644E-01  1.205278932499E-01  1.144881315790E-01  1.086983580631E-01
  1.031495246843E-01  9.783304639118E-02  9.274075678758E-02  8.786486799417E-02
  8.319793437937E-02  7.873281987463E-02  7.446266860575E-02  7.038087858899E-02
  6.648107825621E-02  6.275710558917E-02  5.920298965707E-02  5.581293436542E-02
  5.258130423676E-02  4.950261205558E-02  4.657150822044E-02  4.378277165610E-02
  4.113130214503E-02  3.861211395870E-02  3.622033063997E-02  3.395118084685E-02
  3.179999513020E-02  2.976220354198E-02  2.783333397168E-02  2.600901111327E-02
  2.428495596917E-02  2.265698580241E-02  2.112101445215E-02  1.967305293304E-02
  1.830921024324E-02  1.702569431153E-02  1.581881301930E-02  1.468497523885E-02
  1.362069183563E-02  1.262257658785E-02  1.168734698326E-02  1.081182485913E-02
  9.992936857296E-03  9.227714672349E-03  8.513295076542E-03  7.846919710434E-03
  7.225934633292E-03  6.647789631852E-03  6.110037290178E-03  5.610331827038E-03
  5.146427710370E-03  4.716178061128E-03  4.317532860958E-03  3.948536979952E-03
  3.607328041948E-03  3.292134145772E-03  3.001271461253E-03  2.733141718989E-03
  2.486229612651E-03  2.259100132090E-03  2.050395844865E-03  1.858834142807E-03
  1.683204469211E-03  1.522365540991E-03  1.375242578857E-03  1.240824557210E-03
  1.118161484078E-03  1.006361720073E-03  9.045893440146E-04  8.120615716252E-04
  7.280462325468E-04  6.518593098412E-04  5.828625452064E-04  5.204611122918E-04
  4.641013597864E-04  4.132686253467E-04  3.674851209472E-04  3.263078898389E-04
  2.893268350080E-04  2.561628187958E-04  2.264658331840E-04  1.999132401387E-04
  1.762080813275E-04  1.550774564813E-04  1.362709696326E-04  1.195592424367E-04
  1.047324937533E-04  9.159918462874E-05  7.998472777823E-05  6.973026060874E-05
  6.069148075899E-05  5.273754305245E-05  4.575001667292E-05  3.962190127624E-05
  3.425670065191E-05  2.956755244567E-05  2.547641235320E-05  2.191329109642E-05
  1.881554240223E-05  1.612720011977E-05  1.379836253826E-05  1.178462190609E-05
  1.004653710177E-05  8.549147372132E-06  7.261525030504E-06  6.156364999521E-06
  5.209609087822E-06  4.400102908110E-06  3.709283373988E-06  3.120894752108E-06
  2.620731297506E-06  2.196404589845E-06  1.837133614088E-06  1.533556031540E-06
  1.277558835221E-06  1.062126680682E-06  8.812062181381E-07  7.295853235519E-07
  6.027860725896E-07  4.969698484724E-07  4.088533481145E-07  3.356344914956E-07
  2.749272470134E-07  2.247044423162E-07  1.832477080551E-07  1.491037750563E-07
  1.210464147076E-07  9.804337769498E-08  7.922774754409E-08  6.387318266300E-08
  5.137257378098E-08  4.121969288026E-08  3.299345503273E-08  2.634445610521E-08
  2.098348724152E-08  1.667176153956E-08  1.321261960399E-08  1.044450886591E-08
  8.235056921241E-09  6.476081852627E-09  5.079402766937E-09  3.973331799649E-09
  3.099744800802E-09  2.411642008995E-09  1.871122415956E-09  1.447706390577E-09
  1.116950624261E-09  8.593077197385E-10  6.588032564344E-10  5.039262449889E-10
  3.843222481401E-10  2.922312547884E-10  2.215365843091E-10  1.674313422936E-10
  1.261494073530E-10  9.474913361074E-11  7.093998070012E-11  5.294398904230E-11
  3.938544884214E-11  2.920330685547E-11  2.158185067950E-11  1.589603661508E-11
  1.166851044756E-11  8.535933533766E-12  6.222688873967E-12  4.520420054129E-12
  3.272164237630E-12  2.360090775815E-12  1.696059620315E-12  1.214377066623E-12
  8.662575559752E-13  6.156052418650E-13  4.358127087397E-13  3.073406788757E-13
  2.158951038055E-13  1.510594493223E-13  1.052724837624E-13  7.306728429855E-14
  5.050695468385E-14  3.476788378925E-14  2.383321658081E-14  1.626831585470E-14
  1.105696672057E-14  7.482393504196E-15  5.041196330446E-15  3.381367051165E-15
  2.257841708796E-15  1.500768428284E-15  9.929540660138E-16  6.539068459969E-16
  4.285974078120E-16  2.795796180691E-16  1.814925763454E-16  1.172423161222E-16
  7.536271607524E-17  4.820026946843E-17  3.067164067911E-17  1.941746686241E-17
  1.222895760693E-17  7.661268303649E-18  4.774181024729E-18  2.959077192028E-18
  1.824083847637E-18  1.118242364730E-18  6.817119896725E-19  4.132478734581E-19
  2.490780921819E-19  1.492608069770E-19  8.892239830139E-20  5.266245188329E-20
  3.100162905019E-20  1.813969913304E-20  1.054886826986E-20  6.096490702890E-21
  0.000000000000E+00  0.000000000000E+00  0.000000000000E+00  0.000000000000E+00
  0.000000000000E+00  0.000000000000E+00  0.000000000000E+00  0.000000000000E+00
  0.000000000000E+00  0.000000000000E+00  0.000000000000E+00  0.000000000000E+00
  0.000000000000E+00  0.000000000000E+00  0.000000000000E+00  0.000000000000E+00
  0.000000000000E+00  0.000000000000E+00  0.000000000000E+00  0.000000000000E+00
  0.000000000000E+00
</data>
</radfunc>
</valence-charge>
<pseudocore-charge matching-radius="0.382578382038"
 number-of-continuous-derivatives="4">
<annotation model-charge-form="Teter function with specified parameters" />
<radfunc>
<data npts="290">
  1.562578894198E+02  1.562282773970E+02  1.561397778848E+02  1.559921995974E+02
  1.557871591012E+02  1.555178071395E+02  1.551749402560E+02  1.547829038535E+02
  1.542968703556E+02  1.537724592469E+02  1.531826995076E+02  1.525432818787E+02
  1.517727459801E+02  1.509706112754E+02  1.501719591487E+02  1.492553146617E+02
  1.482041135580E+02  1.472119696679E+02  1.461015795272E+02  1.448599066663E+02
  1.434727603792E+02  1.422480147136E+02  1.409119417736E+02  1.394556587378E+02
  1.378698332121E+02  1.361447192355E+02  1.342702103768E+02  1.327600443388E+02
  1.311555416474E+02  1.294522112718E+02  1.276455657517E+02  1.257311623904E+02
  1.237046514694E+02  1.215618321443E+02  1.192987166638E+02  1.169116035102E+02
  1.143971599874E+02  1.117525146683E+02  1.099159173662E+02  1.080198914806E+02
  1.060640647828E+02  1.040482312208E+02  1.019723684958E+02  9.983665636623E+01
  9.764149559368E+01  9.538752741673E+01  9.307565341617E+01  9.070705560284E+01
  8.828321652796E+01  8.580593918019E+01  8.327736639620E+01  8.069999947152E+01
  7.807671561648E+01  7.541078385947E+01  7.270587895617E+01  6.996609282103E+01
  6.719594295649E+01  6.440037731817E+01  6.158477502241E+01  5.875494227793E+01
  5.591710290874E+01  5.307788283285E+01  5.024428787501E+01  4.742367432300E+01
  4.462371169112E+01  4.185233723337E+01  3.911770185650E+01  3.776675160556E+01
  3.642810722213E+01  3.510281819771E+01  3.379193400018E+01  3.249650136225E+01
  3.121756144477E+01  2.995614688096E+01  2.871327870867E+01  2.748996319927E+01
  2.628718859295E+01  2.510592175164E+01  2.394710474225E+01  2.281165136429E+01
  2.170044363746E+01  2.061432826633E+01  1.955411310041E+01  1.852056360988E+01
  1.751439939798E+01  1.653629077295E+01  1.558685540334E+01  1.466665508165E+01
  1.377619262241E+01  1.291590892150E+01  1.208618020417E+01  1.128731548979E+01
  1.051955430132E+01  9.783064647688E+00  9.077941306709E+00  8.404204435560E+00
  7.761798534817E+00  7.150591790658E+00  6.570375818057E+00  6.020865825633E+00
  5.501701220245E+00  5.012446666393E+00  4.552593612124E+00  4.121562289274E+00
  3.718704191672E+00  3.343305030365E+00  2.994588159939E+00  2.671718464825E+00
  2.373806688950E+00  2.099914186433E+00  1.849058065216E+00  1.620216689667E+00
  1.412335502413E+00  1.224333119971E+00  1.055107651396E+00  9.035431840896E-01
  7.685163763821E-01  6.489030925511E-01  5.435850127212E-01  4.514561477085E-01
  3.714291874534E-01  3.024416113235E-01  2.434614893580E-01  1.934929055336E-01
  1.515809374282E-01  1.168161312562E-01  8.833841715751E-02  6.534041681546E-02
  4.707010388471E-02  3.283278723864E-02  2.199239755366E-02  1.397206906654E-02
  8.254020257717E-03  4.378749485600E-03  1.943573949668E-03  6.005524953862E-04
  5.384437403470E-05  5.656680969963E-05  4.072237776755E-04  9.457864487444E-04
  1.549512010899E-03  2.128591788426E-03  2.621721530578E-03  2.991686291514E-03
  3.221049394255E-03  3.308029569524E-03  3.262642578296E-03  3.103173649199E-03
  2.853035164475E-03  2.538050574858E-03  2.184190957133E-03  1.815775457395E-03
  1.454131645084E-03  1.116697121596E-03  8.165301668675E-04  5.621853256438E-04
  3.579001330275E-04  2.040320726194E-04  9.768065384694E-05  3.342835700795E-05
  4.136142135864E-06  1.734106777563E-06  1.795540233876E-05  4.497122131919E-05
  7.589595986028E-05  1.051438524564E-04  1.286307188005E-04  1.438261934385E-04
  1.496722020270E-04  1.463918684449E-04  1.352189887630E-04  1.180813753424E-04
  9.727165122762E-05  7.513657957852E-05  5.381108332736E-05  3.501628157753E-05
  1.993283132027E-05  9.152401909985E-06  2.702037021912E-06  1.292349006784E-07
  6.304363331441E-07  3.202692086904E-06  6.797787513502E-06  1.045996597606E-05
  1.343228780027E-05  1.522203409615E-05  1.562169816981E-05  1.468820672804E-05
  1.268830519000E-05  1.002187372498E-05  7.136869261706E-06  4.449440473493E-06
  2.280661256857E-06  8.176778786853E-07  1.024923861668E-07  0.000000000000E+00
  0.000000000000E+00  0.000000000000E+00  0.000000000000E+00  0.000000000000E+00
  0.000000000000E+00  0.000000000000E+00  0.000000000000E+00  0.000000000000E+00
  0.000000000000E+00  0.000000000000E+00  0.000000000000E+00  0.000000000000E+00
  0.000000000000E+00  0.000000000000E+00  0.000000000000E+00  0.000000000000E+00
  0.000000000000E+00  0.000000000000E+00  0.000000000000E+00  0.000000000000E+00
  0.000000000000E+00  0.000000000000E+00  0.000000000000E+00  0.000000000000E+00
  0.000000000000E+00  0.000000000000E+00  0.000000000000E+00  0.000000000000E+00
  0.000000000000E+00  0.000000000000E+00  0.000000000000E+00  0.000000000000E+00
  0.000000000000E+00  0.000000000000E+00  0.000000000000E+00  0.000000000000E+00
  0.000000000000E+00  0.000000000000E+00  0.000000000000E+00  0.000000000000E+00
  0.000000000000E+00  0.000000000000E+00  0.000000000000E+00  0.000000000000E+00
  0.000000000000E+00  0.000000000000E+00  0.000000000000E+00  0.000000000000E+00
  0.000000000000E+00  0.000000000000E+00  0.000000000000E+00  0.000000000000E+00
  0.000000000000E+00  0.000000000000E+00  0.000000000000E+00  0.000000000000E+00
  0.000000000000E+00  0.000000000000E+00  0.000000000000E+00  0.000000000000E+00
  0.000000000000E+00  0.000000000000E+00  0.000000000000E+00  0.000000000000E+00
  0.000000000000E+00  0.000000000000E+00  0.000000000000E+00  0.000000000000E+00
  0.000000000000E+00  0.000000000000E+00  0.000000000000E+00  0.000000000000E+00
  0.000000000000E+00  0.000000000000E+00  0.000000000000E+00  0.000000000000E+00
  0.000000000000E+00  0.000000000000E+00  0.000000000000E+00  0.000000000000E+00
  0.000000000000E+00  0.000000000000E+00  0.000000000000E+00  0.000000000000E+00
  0.000000000000E+00  0.000000000000E+00  0.000000000000E+00  0.000000000000E+00
  0.000000000000E+00  0.000000000000E+00  0.000000000000E+00  0.000000000000E+00
  0.000000000000E+00  0.000000000000E+00
</data>
</radfunc>
</pseudocore-charge>
<semilocal-potentials set="scalar_relativistic">
<slps n="3" l="s" rc="1.20240182436">
<radfunc>
<data npts="290">
 -2.388977195327E+01 -2.389057532457E+01 -2.389297622560E+01 -2.389697967448E+01
 -2.390254152725E+01 -2.390984713783E+01 -2.391914546811E+01 -2.392977553965E+01
 -2.394295176227E+01 -2.395716510483E+01 -2.397314543060E+01 -2.399046614077E+01
 -2.401133124008E+01 -2.403304311647E+01 -2.405465138909E+01 -2.407944011762E+01
 -2.410785128268E+01 -2.413464954828E+01 -2.416462154751E+01 -2.419811078310E+01
 -2.423548896735E+01 -2.426845916914E+01 -2.430439043650E+01 -2.434350976546E+01
 -2.438605297131E+01 -2.443226288695E+01 -2.448238689728E+01 -2.452269818259E+01
 -2.456545512591E+01 -2.461075962570E+01 -2.465870995970E+01 -2.470939905020E+01
 -2.476291243395E+01 -2.481932590244E+01 -2.487870277577E+01 -2.494109077256E+01
 -2.500651843704E+01 -2.507499108458E+01 -2.512232136386E+01 -2.517098108534E+01
 -2.522094845067E+01 -2.527219363687E+01 -2.532467795040E+01 -2.537835292622E+01
 -2.543315937163E+01 -2.548902635493E+01 -2.554587014020E+01 -2.560359306955E+01
 -2.566208239587E+01 -2.572120906965E+01 -2.578082648495E+01 -2.584076919088E+01
 -2.590085157653E+01 -2.596086653884E+01 -2.602058414507E+01 -2.607975030307E+01
 -2.613808545499E+01 -2.619528331204E+01 -2.625100965019E+01 -2.630490118878E+01
 -2.635656457615E+01 -2.640557550839E+01 -2.645147800875E+01 -2.649378389709E+01
 -2.653197247934E+01 -2.656549048819E+01 -2.659375230646E+01 -2.660572041851E+01
 -2.661614050511E+01 -2.662493056213E+01 -2.663200672836E+01 -2.663728333447E+01
 -2.664067295874E+01 -2.664208648980E+01 -2.664143319670E+01 -2.663862080664E+01
 -2.663355559070E+01 -2.662614245776E+01 -2.661628505725E+01 -2.660388589082E+01
 -2.658884643346E+01 -2.657106726452E+01 -2.655044820891E+01 -2.652688848896E+01
 -2.650028688742E+01 -2.647054192180E+01 -2.643755203066E+01 -2.640121577196E+01
 -2.636143203390E+01 -2.631810025828E+01 -2.627112067657E+01 -2.622039455857E+01
 -2.616582447357E+01 -2.610731456342E+01 -2.604477082721E+01 -2.597810141653E+01
 -2.590721694041E+01 -2.583203077870E+01 -2.575245940227E+01 -2.566842269833E+01
 -2.557984429907E+01 -2.548665191120E+01 -2.538877764442E+01 -2.528615833628E+01
 -2.517873587127E+01 -2.506645749169E+01 -2.494927609851E+01 -2.482715054007E+01
 -2.470004588749E+01 -2.456793369549E+01 -2.443079224832E+01 -2.428860679078E+01
 -2.414136974502E+01 -2.398908091460E+01 -2.383174767775E+01 -2.366938517276E+01
 -2.350201647888E+01 -2.332967279713E+01 -2.315239363587E+01 -2.297022700722E+01
 -2.278322964091E+01 -2.259146722338E+01 -2.239501467111E+01 -2.219395644845E+01
 -2.198838694172E+01 -2.177841090329E+01 -2.156414398146E+01 -2.134571335401E+01
 -2.112325848638E+01 -2.089693203764E+01 -2.066690094081E+01 -2.043334768659E+01
 -2.019647184221E+01 -1.995649183958E+01 -1.971364706784E+01 -1.946820030623E+01
 -1.922044053170E+01 -1.897068613294E+01 -1.871928855684E+01 -1.846663640588E+01
 -1.821315999372E+01 -1.795933635227E+01 -1.770569466663E+01 -1.745282209377E+01
 -1.720136989839E+01 -1.695205981418E+01 -1.670569051250E+01 -1.646314403287E+01
 -1.622539200328E+01 -1.599350145192E+01 -1.576863998905E+01 -1.555208011904E+01
 -1.534520243005E+01 -1.514949732002E+01 -1.496656615046E+01 -1.479155616565E+01