<?xml version="1.0" encoding="UTF-8" ?>
<psml version="1.1" energy_unit="hartree" length_unit="bohr"
 uuid="ef111490-4706-11e8-7d14-e725ffffe847"
 xmlns="http://esl.cecam.org/PSML/ns/1.1">
<provenance creator="ONCVPSP-3.3.0+psml-3.3.0-73 (fully-relativistic)"
 date="2018-04-23">
<annotation action="semilocal-pseudopotential-generation"
 action-cont="projectors-generation" />
<input-file name="oncvpsp-input">
<![CDATA[# atsym z nc nv iexc psfile
Zn 30 3 4 4 both
# n l f
1 0 2.0
2 0 2.0
2 1 6.0
3 0 2.0
3 1 6.0
3 2 10.0
4 0 2.0
# lmax
2
# l rc ep ncon nbas qcut
0 1.35 0.0 4 9 8.8
1 1.65 0.0 4 9 9.0
2 1.85 0.0 4 9 9.0
# lloc lpopt rc5 dvloc0
4 5 1.3 0.0
# l nproj debl
0 2 1.0
1 2 1.0
2 2 1.0
# icmod fcfact rcfact
3 2.5 1.65
# epsh1 epsh2 depsh
-12.0 12.0 0.02
# rlmax drl
6.0 0.01
 0
]]>
</input-file>
</provenance>
<pseudo-atom-spec atomic-label="Zn" atomic-number="30" z-pseudo="20"
 flavor="Hamann&apos;s oncvpsp" relativity="dirac" spin-dft="no"
 core-corrections="yes">
<annotation pseudo-energy="-206.487417472" />
<exchange-correlation>
<annotation oncvpsp-xc-code="4" oncvpsp-xc-type="GGA -- Perdew-Burke-Ernzerhof" />
<libxc-info number-of-functionals="2">
<functional name="Perdew, Burke &amp; Ernzerhof (GGA)" type="exchange" id="101" />
<functional name="Perdew, Burke &amp; Ernzerhof (GGA)" type="correlation"
 id="130" />
</libxc-info>
</exchange-correlation>
<valence-configuration total-valence-charge="20">
<shell n="3" l="s" occupation="2" />
<shell n="3" l="p" occupation="6" />
<shell n="3" l="d" occupation="10" />
<shell n="4" l="s" occupation="2" />
</valence-configuration>
</pseudo-atom-spec>
<grid npts="457">
<annotation type="sampled from oncvpsp log grid"
 recipe="r(i:1..N) = r1*exp(a*(i-1)) + r=0; resampled"
 recipe-cont="r1: scale; a: step" scale="0.166666666667E-04"
 step="0.119285708653E-01" delta="0.500000000000E-02" rmax="44.2266713690" />
<grid-data>
  0.000000000000E+00  5.050265833728E-03  1.008750967224E-02  1.513287306711E-02
  2.014900893097E-02  2.527454970839E-02  3.058944708272E-02  3.572056252801E-02
  4.072901687140E-02  4.588904843083E-02  5.108973672188E-02  5.620536399126E-02
  6.183322021382E-02  6.721797924334E-02  7.307167114917E-02  7.849321447608E-02
  8.431700851907E-02  8.949891128336E-02  9.499928023531E-02  1.008376874737E-01
  1.070349079473E-01  1.122658037340E-01  1.177523382768E-01  1.235070048802E-01
  1.295429074081E-01  1.358737901225E-01  1.425140689802E-01  1.477063878056E-01
  1.530878821627E-01  1.586654444216E-01  1.644462180666E-01  1.704376068463E-01
  1.766472842551E-01  1.830832033616E-01  1.897536069942E-01  1.966670382985E-01
  2.038323516784E-01  2.112587241371E-01  2.163593547726E-01  2.215831350343E-01
  2.269330382465E-01  2.324121095219E-01  2.380234674942E-01  2.437703060934E-01
  2.496558963637E-01  2.556835883255E-01  2.618568128821E-01  2.681790837723E-01
  2.746539995709E-01  2.812852457365E-01  2.880765967096E-01  2.950319180606E-01
  3.021551686902E-01  3.094504030831E-01  3.169217736151E-01  3.245735329173E-01
  3.324100362960E-01  3.404357442124E-01  3.486552248206E-01  3.570731565687E-01
  3.656943308609E-01  3.745236547852E-01  3.835661539063E-01  3.928269751262E-01
  4.023113896137E-01  4.120247958045E-01  4.219727224744E-01  4.270363951441E-01
  4.321608318858E-01  4.373467618685E-01  4.425949230109E-01  4.479060620870E-01
  4.532809348321E-01  4.587203060501E-01  4.642249497227E-01  4.697956491193E-01
  4.754331969088E-01  4.811383952717E-01  4.869120560149E-01  4.927550006871E-01
  4.986680606954E-01  5.046520774237E-01  5.107079023528E-01  5.168363971810E-01
  5.230384339472E-01  5.293148951546E-01  5.356666738964E-01  5.420946739832E-01
  5.485998100710E-01  5.551830077918E-01  5.618452038853E-01  5.685873463319E-01
  5.754103944879E-01  5.823153192218E-01  5.893031030524E-01  5.963747402891E-01
  6.035312371725E-01  6.107736120186E-01  6.181028953628E-01  6.255201301072E-01
  6.330263716685E-01  6.406226881285E-01  6.483101603860E-01  6.560898823107E-01
  6.639629608984E-01  6.719305164292E-01  6.799936826263E-01  6.881536068178E-01
  6.964114500997E-01  7.047683875009E-01  7.132256081509E-01  7.217843154487E-01
  7.304457272341E-01  7.392110759609E-01  7.480816088724E-01  7.570585881789E-01
  7.661432912370E-01  7.753370107319E-01  7.846410548606E-01  7.940567475190E-01
  8.035854284892E-01  8.132284536311E-01  8.229871950746E-01  8.328630414155E-01
  8.428573979125E-01  8.529716866875E-01  8.632073469277E-01  8.735658350908E-01
  8.840486251119E-01  8.946572086133E-01  9.053930951166E-01  9.162578122580E-01
  9.272529060051E-01  9.383799408772E-01  9.496405001677E-01  9.610361861697E-01
  9.725686204038E-01  9.842394438486E-01  9.960503171748E-01  1.008002920981E+00
  1.020098956033E+00  1.032340143505E+00  1.044728225227E+00  1.057264963930E+00
  1.069952143497E+00  1.082791569219E+00  1.095785068050E+00  1.108934488866E+00
  1.122241702733E+00  1.135708603165E+00  1.149337106403E+00  1.163129151680E+00
  1.177086701500E+00  1.191211741918E+00  1.205506282821E+00  1.219972358215E+00
  1.234612026514E+00  1.249427370832E+00  1.264420499282E+00  1.279593545273E+00
  1.294948667817E+00  1.310488051830E+00  1.326213908452E+00  1.342128475354E+00
  1.358234017058E+00  1.374532825263E+00  1.391027219166E+00  1.407719545796E+00
  1.424612180345E+00  1.441707526510E+00  1.459008016828E+00  1.476516113030E+00
  1.494234306386E+00  1.512165118063E+00  1.530311099479E+00  1.548674832673E+00
  1.567258930665E+00  1.586066037833E+00  1.605098830287E+00  1.624360016251E+00
  1.643852336446E+00  1.663578564483E+00  1.683541507257E+00  1.703744005344E+00
  1.724188933408E+00  1.744879200609E+00  1.765817751016E+00  1.787007564028E+00
  1.808451654797E+00  1.830153074654E+00  1.852114911550E+00  1.874340290489E+00
  1.896832373975E+00  1.919594362462E+00  1.942629494812E+00  1.965941048750E+00
  1.989532341335E+00  2.013406729431E+00  2.037567610184E+00  2.062018421506E+00
  2.086762642564E+00  2.111803794275E+00  2.137145439806E+00  2.162791185084E+00
  2.188744679305E+00  2.215009615457E+00  2.241589730842E+00  2.268488807612E+00
  2.295710673303E+00  2.323259201383E+00  2.351138311800E+00  2.379351971541E+00
  2.407904195200E+00  2.436799045542E+00  2.466040634089E+00  2.495633121698E+00
  2.525580719158E+00  2.555887687788E+00  2.586558340041E+00  2.617597040122E+00
  2.649008204603E+00  2.680796303059E+00  2.712965858695E+00  2.745521449000E+00
  2.778467706388E+00  2.811809318864E+00  2.845551030691E+00  2.879697643059E+00
  2.914254014776E+00  2.949225062953E+00  2.984615763708E+00  3.020431152873E+00
  3.056676326707E+00  3.093356442628E+00  3.130476719939E+00  3.168042440579E+00
  3.206058949866E+00  3.244531657264E+00  3.283466037151E+00  3.322867629597E+00
  3.362742041152E+00  3.403094945646E+00  3.443932084994E+00  3.485259270014E+00
  3.527082381254E+00  3.569407369829E+00  3.612240258267E+00  3.655587141366E+00
  3.699454187062E+00  3.743847637307E+00  3.788773808955E+00  3.834239094662E+00
  3.880249963798E+00  3.926812963364E+00  3.973934718924E+00  4.021621935551E+00
  4.069881398778E+00  4.118719975563E+00  4.168144615270E+00  4.218162350653E+00
  4.268780298861E+00  4.320005662447E+00  4.371845730397E+00  4.424307879162E+00
  4.477399573712E+00  4.531128368596E+00  4.585501909019E+00  4.640527931927E+00
  4.696214267111E+00  4.752568838316E+00  4.809599664376E+00  4.867314860348E+00
  4.925722638672E+00  4.984831310336E+00  5.044649286061E+00  5.105185077493E+00
  5.166447298423E+00  5.228444666004E+00  5.291186001996E+00  5.354680234020E+00
  5.418936396829E+00  5.483963633590E+00  5.549771197194E+00  5.616368451560E+00
  5.683764872979E+00  5.751970051454E+00  5.820993692072E+00  5.890845616377E+00
  5.961535763773E+00  6.033074192938E+00  6.105471083254E+00  6.178736736253E+00
  6.252881577088E+00  6.327916156013E+00  6.403851149885E+00  6.480697363684E+00
  6.558465732048E+00  6.637167320832E+00  6.716813328682E+00  6.797415088627E+00
  6.878984069690E+00  6.961531878526E+00  7.045070261069E+00  7.129611104201E+00
  7.215166437452E+00  7.301748434701E+00  7.389369415918E+00  7.478041848909E+00
  7.567778351096E+00  7.658591691309E+00  7.750494791605E+00  7.843500729104E+00
  7.937622737853E+00  8.032874210707E+00  8.129268701236E+00  8.226819925651E+00
  8.325541764758E+00  8.425448265935E+00  8.526553645127E+00  8.628872288868E+00
  8.732418756335E+00  8.837207781411E+00  8.943254274788E+00  9.050573326085E+00
  9.159180205998E+00  9.269090368470E+00  9.380319452892E+00  9.492883286326E+00
  9.606797885762E+00  9.722079460391E+00  9.838744413916E+00  9.956809346883E+00
  1.007629105905E+01  1.019720655175E+01  1.031957303038E+01  1.044340790674E+01
  1.056872880162E+01  1.069555354724E+01  1.082390018981E+01  1.095378699208E+01
  1.108523243599E+01  1.121825522522E+01  1.135287428792E+01  1.148910877938E+01
  1.162697808473E+01  1.176650182175E+01  1.190769984361E+01  1.205059224173E+01
  1.219519934863E+01  1.234154174082E+01  1.248964024171E+01  1.263951592461E+01
  1.279119011570E+01  1.294468439709E+01  1.310002060986E+01  1.325722085717E+01
  1.341630750746E+01  1.357730319755E+01  1.374023083592E+01  1.390511360595E+01
  1.407197496922E+01  1.424083866885E+01  1.441172873288E+01  1.458466947768E+01
  1.475968551141E+01  1.493680173754E+01  1.511604335839E+01  1.529743587870E+01
  1.548100510924E+01  1.566677717055E+01  1.585477849660E+01  1.604503583856E+01
  1.623757626862E+01  1.643242718384E+01  1.662961631005E+01  1.682917170577E+01
  1.703112176624E+01  1.723549522743E+01  1.744232117016E+01  1.765162902420E+01
  1.786344857249E+01  1.807780995536E+01  1.829474367483E+01  1.851428059893E+01
  1.873645196611E+01  1.896128938971E+01  1.918882486238E+01  1.941909076073E+01
  1.965211984986E+01  1.988794528806E+01  2.012660063152E+01  2.036811983909E+01
  2.061253727716E+01  2.085988772449E+01  2.111020637718E+01  2.136352885371E+01
  2.161989119995E+01  2.187932989435E+01  2.214188185309E+01  2.240758443532E+01
  2.267647544855E+01  2.294859315393E+01  2.322397627178E+01  2.350266398704E+01
  2.378469595488E+01  2.407011230634E+01  2.435895365402E+01  2.465126109787E+01
  2.494707623104E+01  2.524644114581E+01  2.554939843956E+01  2.585599122084E+01
  2.616626311549E+01  2.648025827287E+01  2.679802137215E+01  2.711959762861E+01
  2.744503280016E+01  2.777437319376E+01  2.810766567208E+01  2.844495766015E+01
  2.878629715207E+01  2.913173271789E+01  2.948131351051E+01  2.983508927264E+01
  3.019311034391E+01  3.055542766803E+01  3.092209280005E+01  3.129315791365E+01
  3.166867580861E+01  3.204869991832E+01  3.243328431734E+01  3.282248372915E+01
  3.321635353390E+01  3.361494977630E+01  3.401832917362E+01  3.442654912370E+01
  3.483966771319E+01  3.525774372574E+01  3.568083665045E+01  3.610900669026E+01
  3.654231477054E+01  3.698082254779E+01  3.742459241836E+01  3.787368752738E+01
  3.832817177771E+01  3.878810983904E+01  3.925356715711E+01  3.972460996300E+01
  4.020130528255E+01  4.068372094594E+01  4.117192559730E+01  4.166598870446E+01
  4.216598056892E+01  4.267197233574E+01  4.318403600377E+01  4.370224443582E+01
  4.422667136905E+01
</grid-data>
</grid>
<valence-charge total-charge="20" is-unscreening-charge="yes"
 rescaled-to-z-pseudo="no">
<radfunc>
<data npts="457">
  2.758090571761E+01  2.758697208632E+01  2.760510382090E+01  2.763534517811E+01
  2.767737318406E+01  2.773260396160E+01  2.780294282336E+01  2.788341515843E+01
  2.797380601979E+01  2.807909320711E+01  2.819761085492E+01  2.832623959979E+01
  2.848142709692E+01  2.864319027818E+01  2.883359857420E+01  2.902330452156E+01
  2.924118813812E+01  2.944715393412E+01  2.967803845217E+01  2.993668388129E+01
  3.022620853852E+01  3.048234099984E+01  3.076229243055E+01  3.106806728920E+01
  3.140179207225E+01  3.176571148286E+01  3.216218102253E+01  3.248236738849E+01
  3.282330854743E+01  3.318609120700E+01  3.357181525466E+01  3.398158496913E+01
  3.441649824233E+01  3.487763350337E+01  3.536603400024E+01  3.588268905825E+01
  3.642851189629E+01  3.700431354550E+01  3.740517769787E+01  3.781983183405E+01
  3.824839874298E+01  3.869095712550E+01  3.914753529846E+01  3.961810432459E+01
  4.010257053774E+01  4.060076743513E+01  4.111244691142E+01  4.163726981348E+01
  4.217479580055E+01  4.272447250150E+01  4.328562397041E+01  4.385743845259E+01
  4.443895548754E+01  4.502905239177E+01  4.562643018447E+01  4.622959904268E+01
  4.683686340005E+01  4.744630683512E+01  4.805577693174E+01  4.866287033518E+01
  4.926491827460E+01  4.985897287345E+01  5.044179462651E+01  5.100984148306E+01
  5.155926004159E+01  5.208587942918E+01  5.258520850934E+01  5.282314834421E+01
  5.305243713183E+01  5.327242475124E+01  5.348244220504E+01  5.368180213265E+01
  5.386979943320E+01  5.404571200542E+01  5.420880161183E+01  5.435831487489E+01
  5.449348441228E+01  5.461353011889E+01  5.471766060249E+01  5.480507478011E+01
  5.487496364169E+01  5.492651218717E+01  5.495890154264E+01  5.497131126066E+01
  5.496292180890E+01  5.493291725055E+01  5.488048811875E+01  5.480483448634E+01
  5.470516923078E+01  5.458072149252E+01  5.443074032369E+01  5.425449852204E+01
  5.405129664309E+01  5.382046718134E+01  5.356137890908E+01  5.327344135889E+01
  5.295610943325E+01  5.260888812201E+01  5.223133730548E+01  5.182307661798E+01
  5.138379034358E+01  5.091323231260E+01  5.041123076436E+01  4.987769313839E+01
  4.931261075326E+01  4.871606332931E+01  4.808822330853E+01  4.742935992230E+01
  4.673984295539E+01  4.602014615259E+01  4.527085021267E+01  4.449264531344E+01
  4.368633311092E+01  4.285282815611E+01  4.199315867326E+01  4.110846664554E+01
  4.020000715638E+01  3.926914693817E+01  3.831736208465E+01  3.734623488854E+01
  3.635744977287E+01  3.535278829182E+01  3.433412318590E+01  3.330341148598E+01
  3.226268667168E+01  3.121404990117E+01  3.015966034261E+01  2.910172465011E+01
  2.804248564181E+01  2.698421025115E+01  2.592917683757E+01  2.487966195644E+01
  2.383792670236E+01  2.280620275279E+01  2.178667825099E+01  2.078148367804E+01
  1.979267787223E+01  1.882223436111E+01  1.787202817563E+01  1.694382331726E+01
  1.603926104765E+01  1.515984916548E+01  1.430695242718E+01  1.348178425654E+01
  1.268539987331E+01  1.191869095234E+01  1.118238190366E+01  1.047702783929E+01
  9.803014266097E+00  9.160558515668E+00  8.549712892161E+00  7.970369489280E+00
  7.422266597438E+00  6.904996593516E+00  6.418015178771E+00  5.960651806388E+00
  5.532121119644E+00  5.131535205295E+00  4.757916455155E+00  4.410210822471E+00
  4.087301258546E+00  3.788021119508E+00  3.511167342668E+00  3.255513206390E+00
  3.019820506073E+00  2.802851110661E+00  2.603378064003E+00  2.420195829784E+00
  2.252128601751E+00  2.098037496044E+00  1.956826631813E+00  1.827448101915E+00
  1.708905873505E+00  1.600258674738E+00  1.500621939832E+00  1.409168897163E+00
  1.325130892824E+00  1.247797045737E+00  1.176513330215E+00  1.110681178486E+00
  1.049755689757E+00  9.932435246574E-01  9.407003670639E-01  8.917275335174E-01
  8.459683009594E-01  8.031059007055E-01  7.628613657537E-01  7.249912917760E-01
  6.892855120624E-01  6.555646968166E-01  6.236778850312E-01  5.934988977001E-01
  5.649186108326E-01  5.378358878416E-01  5.121558306748E-01  4.877906727704E-01
  4.646587231858E-01  4.426840649510E-01  4.217961622727E-01  4.019294978008E-01
  3.830232294237E-01  3.650208658795E-01  3.478699606457E-01  3.315218235101E-01
  3.159312492034E-01  3.010562624544E-01  2.868578788153E-01  2.732998805966E-01
  2.603486072471E-01  2.479727595148E-01  2.361432167295E-01  2.248328665521E-01
  2.140164465519E-01  2.036703969786E-01  1.937727241168E-01  1.843028736239E-01
  1.752416132712E-01  1.665709245298E-01  1.582739024606E-01  1.503346633912E-01
  1.427382598834E-01  1.354706025175E-01  1.285183880423E-01  1.218690334625E-01
  1.155106156552E-01  1.094318161336E-01  1.036218705925E-01  9.807052289474E-02
  9.276798317787E-02  8.770488977782E-02  8.287227468852E-02  7.826153229209E-02
  7.386439111301E-02  6.967288836537E-02  6.567934707782E-02  6.187635559533E-02
  5.825674927006E-02  5.481359416578E-02  5.154017261182E-02  4.842997045082E-02
  4.547666584543E-02  4.267411948521E-02  4.001636608974E-02  3.749760707235E-02
  3.511220425142E-02  3.285467449910E-02  3.071968522242E-02  2.870205057701E-02
  2.679672831830E-02  2.499881719994E-02  2.330355483406E-02  2.170631593300E-02
  2.020261085710E-02  1.878808439844E-02  1.745851473605E-02  1.620981250357E-02
  1.503801991605E-02  1.393930990867E-02  1.290998524575E-02  1.194647756448E-02
  1.104534632349E-02  1.020327763192E-02  9.417082940003E-03  8.683697577408E-03
  8.000179130120E-03  7.363705651136E-03  6.771573704189E-03  6.221196243248E-03
  5.710100333628E-03  5.235924723208E-03  4.796417274463E-03  4.389432269791E-03
  4.012927604000E-03  3.664961878767E-03  3.343691414533E-03  3.047367195541E-03
  2.774331763718E-03  2.523016076798E-03  2.291936345542E-03  2.079690864202E-03
  1.884956847462E-03  1.706487286064E-03  1.543107832241E-03  1.393713724859E-03
  1.257266763015E-03  1.132792335613E-03  1.019376513277E-03  9.161632078530E-04
  8.223514036988E-04  7.371924640145E-04  6.599875146046E-04  5.900849067125E-04
  5.268777599253E-04  4.698015856071E-04  4.183319908824E-04  3.719824628451E-04
  3.303022324096E-04  2.928742170267E-04  2.593130413597E-04  2.292631349287E-04
  2.023969056849E-04  1.784129884480E-04  1.570345671310E-04  1.380077696677E-04
  1.211001345525E-04  1.060991478870E-04  9.281084980326E-05  8.105850909988E-05
  7.068136487404E-05  6.153343387590E-05  5.348238223649E-05  4.640846014039E-05
  4.020349792652E-05  3.476996200856E-05  3.002006891427E-05  2.587495565162E-05
  2.226390452358E-05  1.912362043333E-05  1.639755865090E-05  1.403530094926E-05
  1.199197797539E-05  1.022773568007E-05  8.707243580434E-06  7.399242662316E-06
  6.276131285755E-06  5.313583552236E-06  4.490208323446E-06  3.787227728079E-06
  3.188193991454E-06  2.678729367662E-06  2.246290357581E-06  1.879957007056E-06
  1.570242788852E-06  1.308923694725E-06  1.088885255267E-06  9.039859233558E-07
  7.489353682978E-07  6.191863179573E-07  5.108386758344E-07  4.205547282634E-07
  3.454843431390E-07  2.831991452196E-07  2.316347336910E-07  1.890400849110E-07
  1.539333568253E-07  1.250633812257E-07  1.013761956916E-07  8.198602862257E-08
  6.615020822563E-08  5.324751969121E-08  4.275958414717E-08  3.425487842745E-08
  2.737505636721E-08  2.182327039701E-08  1.735422683062E-08  1.376573961384E-08
  1.089157562172E-08  8.595410060962E-09  6.765733355860E-09  5.311571271193E-09
  4.158898151321E-09  3.247639222891E-09  2.529172102518E-09  1.964250146003E-09
  1.521281237239E-09  1.174905198467E-09  9.048213535245E-10  6.948250263524E-10
  5.320180316465E-10  4.061636262663E-10  3.091610416645E-10  2.346187025054E-10
  1.775086387922E-10  1.338874936326E-10  1.006719835427E-10  7.545874273404E-11
  5.638023006646E-11  4.198984387280E-11  3.117061654707E-11  2.306288330452E-11
  1.700716889397E-11  1.249923912122E-11  9.154843977333E-12  6.682155832038E-12
  4.860296542309E-12  3.522665906498E-12  2.544042933724E-12  1.830641255420E-12
  1.312469393837E-12  9.374828177022E-13  6.671238446762E-13  4.729325495973E-13
  3.339810890297E-13  2.349387019003E-13  1.646179195299E-13  1.148865253357E-13
  7.985642341170E-14  5.528132782798E-14  3.811129828718E-14  2.616460860607E-14
  1.788703073370E-14  1.217597642308E-14  8.252473923647E-15  5.568859282800E-15
  3.741297577131E-15  2.502240889559E-15  1.665955834855E-15  1.104082984965E-15
  7.283160661654E-16  4.781826190121E-16  3.124632116920E-16  2.031937741093E-16
  1.314931670402E-16  8.467434318362E-17  5.425385672774E-17  3.458704581770E-17
  2.193683855610E-17  1.384157610065E-17  8.688024704086E-18  5.424420816002E-18
  3.368642445781E-18  2.080643545079E-18  1.278066183966E-18  7.807162597635E-19
  4.742292098193E-19  2.864238592821E-19  1.719990916002E-19  1.026854851688E-19
  6.094349938360E-20  3.595424345138E-20  2.108367261447E-20  0.000000000000E+00
  0.000000000000E+00  0.000000000000E+00  0.000000000000E+00  0.000000000000E+00
  0.000000000000E+00  0.000000000000E+00  0.000000000000E+00  0.000000000000E+00
  0.000000000000E+00  0.000000000000E+00  0.000000000000E+00  0.000000000000E+00
  0.000000000000E+00  0.000000000000E+00  0.000000000000E+00  0.000000000000E+00
  0.000000000000E+00  0.000000000000E+00  0.000000000000E+00  0.000000000000E+00
  0.000000000000E+00  0.000000000000E+00  0.000000000000E+00  0.000000000000E+00
  0.000000000000E+00
</data>
</radfunc>
</valence-charge>
<pseudocore-charge matching-radius="0.365694330861"
 number-of-continuous-derivatives="4">
<annotation model-charge-form="Teter function with specified parameters" />
<radfunc>
<data npts="290">
  1.309839645696E+02  1.309549769978E+02  1.308683488879E+02  1.307239084411E+02
  1.305232632087E+02  1.302597481762E+02  1.299244150993E+02  1.295411356364E+02
  1.291110780167E+02  1.286107634562E+02  1.280483710301E+02  1.274389467568E+02
  1.267050011159E+02  1.259414779811E+02  1.250447346776E+02  1.241534276945E+02
  1.231323451079E+02  1.221696743668E+02  1.210934832329E+02  1.198915808419E+02
  1.185507873097E+02  1.173686680329E+02  1.160809300377E+02  1.146795291131E+02
  1.131561003660E+02  1.115020131546E+02  1.097084452701E+02  1.082663713608E+02
  1.067370654052E+02  1.051168133626E+02  1.034019865181E+02  1.015890894700E+02
  9.967481518109E+01  9.765610758714E+01  9.553023219040E+01  9.329485496425E+01
  9.094812975290E+01  8.848879415919E+01  8.678636042669E+01  8.503362826584E+01
  8.323079340605E+01  8.137824089859E+01  7.947656153516E+01  7.752656856108E+01
  7.552931453576E+01  7.348610816503E+01  7.139853090043E+01  6.926845306769E+01
  6.709804925353E+01  6.488981264385E+01  6.264656797085E+01  6.037148269008E+01
  5.806807597306E+01  5.574022506776E+01  5.339216854861E+01  5.102850595298E+01
  4.865419328153E+01  4.627453383054E+01  4.389516382511E+01  4.152203233697E+01
  3.916137500145E+01  3.681968109873E+01  3.450365363592E+01  3.222016216360E+01
  2.997618818388E+01  2.777876315925E+01  2.563489931474E+01  2.458522032192E+01
  2.355151363828E+01  2.253461552519E+01  2.153534572700E+01  2.055450463459E+01
  1.959287039626E+01  1.865119598844E+01  1.773020625983E+01  1.683059496397E+01
  1.595302179630E+01  1.509810945308E+01  1.426644073052E+01  1.345855568376E+01
  1.267494886613E+01  1.191606667011E+01  1.118230479227E+01  1.047400584476E+01
  9.791457136885E+00  9.134888650036E+00  8.504471229735E+00  7.900315018097E+00
  7.322468149707E+00  6.770915733159E+00  6.245579139503E+00  5.746315617505E+00
  5.272918254011E+00  4.825116295664E+00  4.402575845932E+00  4.004900948686E+00
  3.631635066543E+00  3.282262958831E+00  2.956212960282E+00  2.652859657657E+00
  2.371526957139E+00  2.111491530879E+00  1.871986626399E+00  1.652206217697E+00
  1.451309472037E+00  1.268425501507E+00  1.102658363604E+00  9.530922705008E-01
  8.187969622068E-01  6.988331948718E-01  5.922582918552E-01  4.981317022019E-01
  4.155205087947E-01  3.435048268570E-01  2.811830327206E-01  2.276767629489E-01
  1.821356250744E-01  1.437415634307E-01  1.117128268682E-01  8.530748955172E-02
  6.382648153668E-02  4.661609236839E-02  3.306991848224E-02  2.263023359748E-02
  1.478877046817E-02  9.086912118207E-03  5.115300853823E-03  2.512883698121E-03
  9.654231877843E-04  2.035124528774E-04  1.428961419778E-07  1.678813238931E-04
  5.557207868862E-04  1.045675411026E-03  1.549193904106E-03  2.003469020640E-03
  2.367720902809E-03  2.619530797418E-03  2.751298146611E-03  2.766888504512E-03
  2.678532259395E-03  2.504024934602E-03  2.264269170277E-03  1.981186691462E-03
  1.676016046720E-03  1.367999104430E-03  1.073446701734E-03  8.051619463626E-04
  5.721889557597E-04  3.798457277964E-04  2.299927600553E-04  1.214842743360E-04
  5.074665969118E-05  1.242910001164E-05  7.424777036675E-08  6.762054541469E-06
  2.568714946650E-05  5.063902750061E-05  7.636423052357E-05  9.880006849118E-05
  1.151795954481E-04  1.240168972252E-04  1.249896887122E-04  1.187422801383E-04
  1.066358101704E-04  9.047408022629E-05  7.223236422298E-05  5.381340416223E-05
  3.684980436115E-05  2.256572482924E-05  1.170377295610E-05  4.515979864045E-06
  8.113903764611E-07  4.768515756990E-08  1.450846423726E-06  4.145446822894E-06
  7.278741450138E-06  1.012420834538E-05  1.215413849931E-05  1.307578162080E-05
  1.283076512626E-05  1.156235314233E-05  9.558992307460E-06  7.185034708534E-06
  4.810272577505E-06  2.748943687836E-06  1.216396628526E-06  3.080821315023E-07
  1.550850465514E-09  0.000000000000E+00  0.000000000000E+00  0.000000000000E+00
  0.000000000000E+00  0.000000000000E+00  0.000000000000E+00  0.000000000000E+00
  0.000000000000E+00  0.000000000000E+00  0.000000000000E+00  0.000000000000E+00
  0.000000000000E+00  0.000000000000E+00  0.000000000000E+00  0.000000000000E+00
  0.000000000000E+00  0.000000000000E+00  0.000000000000E+00  0.000000000000E+00
  0.000000000000E+00  0.000000000000E+00  0.000000000000E+00  0.000000000000E+00
  0.000000000000E+00  0.000000000000E+00  0.000000000000E+00  0.000000000000E+00
  0.000000000000E+00  0.000000000000E+00  0.000000000000E+00  0.000000000000E+00
  0.000000000000E+00  0.000000000000E+00  0.000000000000E+00  0.000000000000E+00
  0.000000000000E+00  0.000000000000E+00  0.000000000000E+00  0.000000000000E+00
  0.000000000000E+00  0.000000000000E+00  0.000000000000E+00  0.000000000000E+00
  0.000000000000E+00  0.000000000000E+00  0.000000000000E+00  0.000000000000E+00
  0.000000000000E+00  0.000000000000E+00  0.000000000000E+00  0.000000000000E+00
  0.000000000000E+00  0.000000000000E+00  0.000000000000E+00  0.000000000000E+00
  0.000000000000E+00  0.000000000000E+00  0.000000000000E+00  0.000000000000E+00
  0.000000000000E+00  0.000000000000E+00  0.000000000000E+00  0.000000000000E+00
  0.000000000000E+00  0.000000000000E+00  0.000000000000E+00  0.000000000000E+00
  0.000000000000E+00  0.000000000000E+00  0.000000000000E+00  0.000000000000E+00
  0.000000000000E+00  0.000000000000E+00  0.000000000000E+00  0.000000000000E+00
  0.000000000000E+00  0.000000000000E+00  0.000000000000E+00  0.000000000000E+00
  0.000000000000E+00  0.000000000000E+00  0.000000000000E+00  0.000000000000E+00
  0.000000000000E+00  0.000000000000E+00  0.000000000000E+00  0.000000000000E+00
  0.000000000000E+00  0.000000000000E+00  0.000000000000E+00  0.000000000000E+00
  0.000000000000E+00  0.000000000000E+00  0.000000000000E+00  0.000000000000E+00
  0.000000000000E+00  0.000000000000E+00  0.000000000000E+00  0.000000000000E+00
  0.000000000000E+00  0.000000000000E+00
</data>
</radfunc>
</pseudocore-charge>
<semilocal-potentials set="scalar_relativistic">
<slps n="3" l="s" rc="1.35823401706">
<radfunc>
<data npts="290">
 -3.237969325405E+01 -3.237952534566E+01 -3.237902335693E+01 -3.237818573104E+01
 -3.237702085737E+01 -3.237548864728E+01 -3.237353496338E+01 -3.237129652233E+01
 -3.236877788033E+01 -3.236583826068E+01 -3.236252139820E+01 -3.235891183418E+01
 -3.235454299110E+01 -3.234997208918E+01 -3.234456864498E+01 -3.233915915793E+01
 -3.233291269542E+01 -3.232697348188E+01 -3.232027409866E+01 -3.231271450440E+01
 -3.230418038369E+01 -3.229656401454E+01 -3.228816448054E+01 -3.227889658951E+01
 -3.226866457589E+01 -3.225736047894E+01 -3.224486222012E+01 -3.223462224391E+01
 -3.222356771466E+01 -3.221162651784E+01 -3.219871890949E+01 -3.218475655212E+01
 -3.216964141986E+01 -3.215326455690E+01 -3.213550467172E+01 -3.211622654794E+01
 -3.209527925207E+01 -3.207249411677E+01 -3.205619073464E+01 -3.203892579696E+01
 -3.202063314443E+01 -3.200124141773E+01 -3.198067363881E+01 -3.195884676410E+01
 -3.193567120855E+01 -3.191105034081E+01 -3.188487994956E+01 -3.185704768215E+01
 -3.182743245753E+01 -3.179590385645E+01 -3.176232149343E+01 -3.172653437705E+01
 -3.168838026710E+01 -3.164768503979E+01 -3.160426207663E+01 -3.155791169385E+01
 -3.150842063652E+01 -3.145556166341E+01 -3.139909325381E+01 -3.133875947055E+01
 -3.127429001512E+01 -3.120540050924E+01 -3.113179303177E+01 -3.105315692842E+01
 -3.096916989323E+01 -3.087949929541E+01 -3.078380369248E+01 -3.073358779910E+01
 -3.068173443594E+01 -3.062819915425E+01 -3.057293724244E+01 -3.051590376284E+01
 -3.045705358188E+01 -3.039634139312E+01 -3.033372173214E+01 -3.026914898316E+01
 -3.020257737710E+01 -3.013396098167E+01 -3.006325368404E+01 -2.999040916755E+01
 -2.991538088386E+01 -2.983812202263E+01 -2.975858548099E+01 -2.967672383530E+01
 -2.959248931786E+01 -2.950583380117E+01 -2.941670879251E+01 -2.932506544126E+01
 -2.923085456137E+01 -2.913402667118E+01 -2.903453205260E+01 -2.893232083137E+01
 -2.882734308007E+01 -2.871954894546E+01 -2.860888880125E+01 -2.849531342758E+01
 -2.837877421808E+01 -2.825922341495E+01 -2.813661437233E+01 -2.801090184717E+01
 -2.788204231661E+01 -2.774999431931E+01 -2.761471881762E+01 -2.747617957619E+01
 -2.733434355128E+01 -2.718918128456E+01 -2.704066729389E+01 -2.688878045348E+01
 -2.673350435569E+01 -2.657482764720E+01 -2.641274433318E+01 -2.624725404441E+01
 -2.607836226426E+01 -2.590608051388E+01 -2.573042649650E+01 -2.555142420294E+01
 -2.536910398228E+01 -2.518350258231E+01 -2.499466316485E+01 -2.480263530042E+01
 -2.460747494586E+01 -2.440924440684E+01 -2.420801228497E+01 -2.400385340725E+01
 -2.379684873279E+01 -2.358708523005E+01 -2.337465571592E+01 -2.315965864679E+01
 -2.294219785158E+01 -2.272238219730E+01 -2.250032517916E+01 -2.227614443013E+01
 -2.204996114866E+01 -2.182189944823E+01 -2.159208563869E+01 -2.136064745675E+01
 -2.112771327153E+01 -2.089341130068E+01 -2.065786888326E+01 -2.042121186688E+01
 -2.018356417855E+01 -1.994504766061E+01 -1.970578226454E+01 -1.946588670556E+01
 -1.922547968920E+01 -1.898468182501E+01 -1.874361834331E+01 -1.850242272431E+01
 -1.826124133644E+01 -1.802023915936E+01 -1.777960663824E+01 -1.753956767842E+01
 -1.730038874608E+01 -1.706238899208E+01 -1.682595126729E+01 -1.659153385122E+01