Li    ONCVPSP-3.3.0  r_core=   1.20595   1.00838
3.0000      3.0000      180506    zatom,zion,pspd
8      11   1     4   400     0    pspcod,pspxc,lmax,lloc,mmax,r2well
3.99000000  0.00000000  0.00000000    rchrg fchrg qchrg
2     2     0     0    nproj
3     1           extension_switch
3     0     0    nprojso
0                        -5.3580068082098D+00 -1.5100704535919D+00
1  0.0000000000000D+00 -4.0923905375578D-09  1.2717407682494D-08
2  1.0000000000000D-02  1.1505344756911D-01 -5.1759201026517D-02
3  2.0000000000000D-02  2.2959489626985D-01 -1.0284578220303D-01
4  3.0000000000000D-02  3.4311641869361D-01 -1.5259625378609D-01
5  4.0000000000000D-02  4.5511817328256D-01 -2.0036522170571D-01
6  5.0000000000000D-02  5.6511230566104D-01 -2.4553402740539D-01
7  6.0000000000000D-02  6.7262668304987D-01 -2.8751890740295D-01
8  7.0000000000000D-02  7.7720841105143D-01 -3.2577852779813D-01
9  8.0000000000000D-02  8.7842708618577D-01 -3.5982076167056D-01
10  9.0000000000000D-02  9.7587774251338D-01 -3.8920859270209D-01
11  1.0000000000000D-01  1.0691834563973D+00 -4.1356504609902D-01
12  1.1000000000000D-01  1.1579975798173D+00 -4.3257706761064D-01
13  1.2000000000000D-01  1.2420055795231D+00 -4.4599829272834D-01
14  1.3000000000000D-01  1.3209264665599D+00 -4.5365067055783D-01
15  1.4000000000000D-01  1.3945138081680D+00 -4.5542492991637D-01
16  1.5000000000000D-01  1.4625563216006D+00 -4.5127989843408D-01
17  1.6000000000000D-01  1.5248780568596D+00 -4.4124070834567D-01
18  1.7000000000000D-01  1.5813381825708D+00 -4.2539594476533D-01
19  1.8000000000000D-01  1.6318303960590D+00 -4.0389381307989D-01
20  1.9000000000000D-01  1.6762819849990D+00 -3.7693742123368D-01
21  2.0000000000000D-01  1.7146525736875D+00 -3.4477928971266D-01
22  2.1000000000000D-01  1.7469325918847D+00 -3.0771521660452D-01
23  2.2000000000000D-01  1.7731415082167D+00 -2.6607763691173D-01
24  2.3000000000000D-01  1.7933258732360D+00 -2.2022862407472D-01
25  2.4000000000000D-01  1.8075572193386D+00 -1.7055268724053D-01
26  2.5000000000000D-01  1.8159298658052D+00 -1.1744952006971D-01
27  2.6000000000000D-01  1.8185586772471D+00 -6.1326855765900D-02
28  2.7000000000000D-01  1.8155768227051D+00 -2.5935785628763D-03
29  2.8000000000000D-01  1.8071335805996D+00  5.8346765789891D-02
30  2.9000000000000D-01  1.7933922317150D+00  1.2110192877368D-01
31  3.0000000000000D-01  1.7745280784900D+00  1.8529626892654D-01
32  3.1000000000000D-01  1.7507266241725D+00  2.5057531076463D-01
33  3.2000000000000D-01  1.7221819399891D+00  3.1660946918349D-01
34  3.3000000000000D-01  1.6890952424993D+00  3.8309687589616D-01
35  3.4000000000000D-01  1.6516736968910D+00  4.4976526600100D-01
36  3.5000000000000D-01  1.6101294552718D+00  5.1637290520253D-01
37  3.6000000000000D-01  1.5646789321709D+00  5.8270856104349D-01
38  3.7000000000000D-01  1.5155423126508D+00  6.4859054424172D-01
39  3.8000000000000D-01  1.4629432817831D+00  7.1386486836271D-01
40  3.9000000000000D-01  1.4071089579327D+00  7.7840259710330D-01
41  4.0000000000000D-01  1.3482700064553D+00  8.4209646794566D-01
42  4.1000000000000D-01  1.2866609051861D+00  9.0485689842415D-01
43  4.2000000000000D-01  1.2225203286047D+00  9.6660749633264D-01
44  4.3000000000000D-01  1.1560916139104D+00  1.0272802075378D+00
45  4.4000000000000D-01  1.0876232695208D+00  1.0868102443656D+00
46  4.5000000000000D-01  1.0173694847861D+00  1.1451309435639D+00
47  4.6000000000000D-01  9.4559059904015D-01  1.2021687054632D+00
48  4.7000000000000D-01  8.7255348850646D-01  1.2578381650663D+00
49  4.8000000000000D-01  7.9853183104972D-01  1.3120377413994D+00
50  4.9000000000000D-01  7.2380621128469D-01  1.3646457036144D+00
51  5.0000000000000D-01  6.4866403207463D-01  1.4155168811891D+00
52  5.1000000000000D-01  5.7339920290782D-01  1.4644801313511D+00
53  5.2000000000000D-01  4.9831158093489D-01  1.5113366598321D+00
54  5.3000000000000D-01  4.2370614647425D-01  1.5558592716025D+00
55  5.4000000000000D-01  3.4989190141456D-01  1.5977926067510D+00
56  5.5000000000000D-01  2.7718048603188D-01  1.6368543935724D+00
57  5.6000000000000D-01  2.0588451710860D-01  1.6727377268164D+00
58  5.7000000000000D-01  1.3631565777401D-01  1.7051143542787D+00
59  5.8000000000000D-01  6.8782436957132D-02  1.7336389302298D+00
60  5.9000000000000D-01  3.5878436350557D-03  1.7579541699294D+00
61  6.0000000000000D-01 -5.8973272046926D-02  1.7776968163829D+00
62  6.1000000000000D-01 -1.1861695232260D-01  1.7925043089116D+00
63  6.2000000000000D-01 -1.7507299590223D-01  1.8020220237389D+00
64  6.3000000000000D-01 -2.2808788363645D-01  1.8059109398354D+00
65  6.4000000000000D-01 -2.7742771289653D-01  1.8038555694145D+00
66  6.5000000000000D-01 -3.2288108498733D-01  1.7955719818211D+00
67  6.6000000000000D-01 -3.6426188824285D-01  1.7808157425581D+00
68  6.7000000000000D-01 -4.0141191899171D-01  1.7593895859904D+00
69  6.8000000000000D-01 -4.3420328336365D-01  1.7311506409797D+00
70  6.9000000000000D-01 -4.6254052495172D-01  1.6960170334132D+00
71  7.0000000000000D-01 -4.8636242663490D-01  1.6539736982605D+00
72  7.1000000000000D-01 -5.0564343931965D-01  1.6050772461899D+00
73  7.2000000000000D-01 -5.2039469599006D-01  1.5494597459319D+00
74  7.3000000000000D-01 -5.3066457607493D-01  1.4873313029440D+00
75  7.4000000000000D-01 -5.3653879268833D-01  1.4189813373080D+00
76  7.5000000000000D-01 -5.3813998362682D-01  1.3447784887355D+00
77  7.6000000000000D-01 -5.3562679593099D-01  1.2651691034972D+00
78  7.7000000000000D-01 -5.2919246319166D-01  1.1806742865788D+00
79  7.8000000000000D-01 -5.1906288443335D-01  1.0918855318636D+00
80  7.9000000000000D-01 -5.0549422307882D-01  9.9945897285450D-01
81  8.0000000000000D-01 -4.8877005406858D-01  9.0410832598243D-01
82  8.1000000000000D-01 -4.6919809643328D-01  8.0659662715442D-01
83  8.2000000000000D-01 -4.4710657731751D-01  7.0772688930711D-01
84  8.3000000000000D-01 -4.2284028144207D-01  6.0833183375756D-01
85  8.4000000000000D-01 -3.9675634709552D-01  5.0926287054237D-01
86  8.5000000000000D-01 -3.6921987580731D-01  4.1137852220424D-01
87  8.6000000000000D-01 -3.4059942773595D-01  3.1553250118710D-01
88  8.7000000000000D-01 -3.1126247839081D-01  2.2256166276377D-01
89  8.8000000000000D-01 -2.8157091483351D-01  1.3327406425610D-01
90  8.9000000000000D-01 -2.5187664986509D-01  4.8437362554039D-02
91  9.0000000000000D-01 -2.2251741367341D-01 -3.1232289651145D-02
92  9.1000000000000D-01 -1.9381290707272D-01 -1.0508019881604D-01
93  9.2000000000000D-01 -1.6606060431007D-01 -1.7252481870723D-01
94  9.3000000000000D-01 -1.3953104656005D-01 -2.3307164148748D-01
95  9.4000000000000D-01 -1.1446398842546D-01 -2.8632383700109D-01
96  9.5000000000000D-01 -9.1065858895504D-02 -3.3198810131134D-01
97  9.6000000000000D-01 -6.9507703722510D-02 -3.6987918467282D-01
98  9.7000000000000D-01 -4.9923736522382D-02 -3.9992260952559D-01
99  9.8000000000000D-01 -3.2410505556339D-02 -4.2215557779416D-01
100  9.9000000000000D-01 -1.7026688705075D-02 -4.3672602960114D-01
101  1.0000000000000D+00 -3.7935187189885D-03 -4.4388984716318D-01
102  1.0100000000000D+00  7.3041707911547D-03 -4.4400623326914D-01
103  1.0200000000000D+00  1.6316299251001D-02 -4.3753132755255D-01
104  1.0300000000000D+00  2.3325324387025D-02 -4.2501015690765D-01
105  1.0400000000000D+00  2.8443500694688D-02 -4.0706704807226D-01
106  1.0500000000000D+00  3.1809662155452D-02 -3.8439465860224D-01
107  1.0600000000000D+00  3.3585589625822D-02 -3.5774181121952D-01
108  1.0700000000000D+00  3.3952030368633D-02 -3.2790033815763D-01
109  1.0800000000000D+00  3.3104443857436D-02 -2.9569116260291D-01
110  1.0900000000000D+00  3.1248552949194D-02 -2.6194985961561D-01
111  1.1000000000000D+00  2.8595783030430D-02 -2.2751194973887D-01
112  1.1100000000000D+00  2.5358674163606D-02 -1.9319818600324D-01
113  1.1200000000000D+00  2.1746351455967D-02 -1.5980009567888D-01
114  1.1300000000000D+00  1.7960137485173D-02 -1.2806603391209D-01
115  1.1400000000000D+00  1.4189388820985D-02 -9.8688000900319D-02
116  1.1500000000000D+00  1.0607633771312D-02 -7.2289459201163D-02
117  1.1600000000000D+00  7.3690831954589D-03 -4.9414371536762D-02
118  1.1700000000000D+00  4.6070889168227D-03 -3.0527642937001D-02
119  1.1800000000000D+00  2.4196643685587D-03 -1.5928121982017D-02
120  1.1900000000000D+00  9.0005260922830D-04 -5.9587604607311D-03
121  1.2000000000000D+00  1.3208340978086D-04 -9.8455451804247D-04
122  1.2100000000000D+00 -5.9780757069877D-05  2.9482100977843D-04
123  1.2200000000000D+00 -3.0486216966065D-06  1.6748233299131D-05
124  1.2300000000000D+00  1.2434851522314D-05 -6.9987207236692D-05
125  1.2400000000000D+00 -2.6503464617225D-06  1.4491017694906D-05
126  1.2500000000000D+00  2.5438946682181D-09 -6.9282351261629D-09
127  1.2600000000000D+00  7.5253180453757D-08 -2.0495020280867D-07
128  1.2700000000000D+00  0.0000000000000D+00  0.0000000000000D+00
129  1.2800000000000D+00  0.0000000000000D+00  0.0000000000000D+00
130  1.2900000000000D+00  0.0000000000000D+00  0.0000000000000D+00
131  1.3000000000000D+00  0.0000000000000D+00  0.0000000000000D+00
132  1.3100000000000D+00  0.0000000000000D+00  0.0000000000000D+00
133  1.3200000000000D+00  0.0000000000000D+00  0.0000000000000D+00
134  1.3300000000000D+00  0.0000000000000D+00  0.0000000000000D+00
135  1.3400000000000D+00  0.0000000000000D+00  0.0000000000000D+00
136  1.3500000000000D+00  0.0000000000000D+00  0.0000000000000D+00
137  1.3600000000000D+00  0.0000000000000D+00  0.0000000000000D+00
138  1.3700000000000D+00  0.0000000000000D+00  0.0000000000000D+00
139  1.3800000000000D+00  0.0000000000000D+00  0.0000000000000D+00
140  1.3900000000000D+00  0.0000000000000D+00  0.0000000000000D+00
141  1.4000000000000D+00  0.0000000000000D+00  0.0000000000000D+00
142  1.4100000000000D+00  0.0000000000000D+00  0.0000000000000D+00
143  1.4200000000000D+00  0.0000000000000D+00  0.0000000000000D+00
144  1.4300000000000D+00  0.0000000000000D+00  0.0000000000000D+00
145  1.4400000000000D+00  0.0000000000000D+00  0.0000000000000D+00
146  1.4500000000000D+00  0.0000000000000D+00  0.0000000000000D+00
147  1.4600000000000D+00  0.0000000000000D+00  0.0000000000000D+00
148  1.4700000000000D+00  0.0000000000000D+00  0.0000000000000D+00
149  1.4800000000000D+00  0.0000000000000D+00  0.0000000000000D+00
150  1.4900000000000D+00  0.0000000000000D+00  0.0000000000000D+00
151  1.5000000000000D+00  0.0000000000000D+00  0.0000000000000D+00
152  1.5100000000000D+00  0.0000000000000D+00  0.0000000000000D+00
153  1.5200000000000D+00  0.0000000000000D+00  0.0000000000000D+00
154  1.5300000000000D+00  0.0000000000000D+00  0.0000000000000D+00
155  1.5400000000000D+00  0.0000000000000D+00  0.0000000000000D+00
156  1.5500000000000D+00  0.0000000000000D+00  0.0000000000000D+00
157  1.5600000000000D+00  0.0000000000000D+00  0.0000000000000D+00
158  1.5700000000000D+00  0.0000000000000D+00  0.0000000000000D+00
159  1.5800000000000D+00  0.0000000000000D+00  0.0000000000000D+00
160  1.5900000000000D+00  0.0000000000000D+00  0.0000000000000D+00
161  1.6000000000000D+00  0.0000000000000D+00  0.0000000000000D+00
162  1.6100000000000D+00  0.0000000000000D+00  0.0000000000000D+00
163  1.6200000000000D+00  0.0000000000000D+00  0.0000000000000D+00
164  1.6300000000000D+00  0.0000000000000D+00  0.0000000000000D+00
165  1.6400000000000D+00  0.0000000000000D+00  0.0000000000000D+00
166  1.6500000000000D+00  0.0000000000000D+00  0.0000000000000D+00
167  1.6600000000000D+00  0.0000000000000D+00  0.0000000000000D+00
168  1.6700000000000D+00  0.0000000000000D+00  0.0000000000000D+00
169  1.6800000000000D+00  0.0000000000000D+00  0.0000000000000D+00
170  1.6900000000000D+00  0.0000000000000D+00  0.0000000000000D+00
171  1.7000000000000D+00  0.0000000000000D+00  0.0000000000000D+00
172  1.7100000000000D+00  0.0000000000000D+00  0.0000000000000D+00
173  1.7200000000000D+00  0.0000000000000D+00  0.0000000000000D+00
174  1.7300000000000D+00  0.0000000000000D+00  0.0000000000000D+00
175  1.7400000000000D+00  0.0000000000000D+00  0.0000000000000D+00
176  1.7500000000000D+00  0.0000000000000D+00  0.0000000000000D+00
177  1.7600000000000D+00  0.0000000000000D+00  0.0000000000000D+00
178  1.7700000000000D+00  0.0000000000000D+00  0.0000000000000D+00
179  1.7800000000000D+00  0.0000000000000D+00  0.0000000000000D+00
180  1.7900000000000D+00  0.0000000000000D+00  0.0000000000000D+00
181  1.8000000000000D+00  0.0000000000000D+00  0.0000000000000D+00
182  1.8100000000000D+00  0.0000000000000D+00  0.0000000000000D+00
183  1.8200000000000D+00  0.0000000000000D+00  0.0000000000000D+00
184  1.8300000000000D+00  0.0000000000000D+00  0.0000000000000D+00
185  1.8400000000000D+00  0.0000000000000D+00  0.0000000000000D+00
186  1.8500000000000D+00  0.0000000000000D+00  0.0000000000000D+00
187  1.8600000000000D+00  0.0000000000000D+00  0.0000000000000D+00
188  1.8700000000000D+00  0.0000000000000D+00  0.0000000000000D+00
189  1.8800000000000D+00  0.0000000000000D+00  0.0000000000000D+00
190  1.8900000000000D+00  0.0000000000000D+00  0.0000000000000D+00
191  1.9000000000000D+00  0.0000000000000D+00  0.0000000000000D+00
192  1.9100000000000D+00  0.0000000000000D+00  0.0000000000000D+00
193  1.9200000000000D+00  0.0000000000000D+00  0.0000000000000D+00
194  1.9300000000000D+00  0.0000000000000D+00  0.0000000000000D+00
195  1.9400000000000D+00  0.0000000000000D+00  0.0000000000000D+00
196  1.9500000000000D+00  0.0000000000000D+00  0.0000000000000D+00
197  1.9600000000000D+00  0.0000000000000D+00  0.0000000000000D+00
198  1.9700000000000D+00  0.0000000000000D+00  0.0000000000000D+00
199  1.9800000000000D+00  0.0000000000000D+00  0.0000000000000D+00
200  1.9900000000000D+00  0.0000000000000D+00  0.0000000000000D+00
201  2.0000000000000D+00  0.0000000000000D+00  0.0000000000000D+00
202  2.0100000000000D+00  0.0000000000000D+00  0.0000000000000D+00
203  2.0200000000000D+00  0.0000000000000D+00  0.0000000000000D+00
204  2.0300000000000D+00  0.0000000000000D+00  0.0000000000000D+00
205  2.0400000000000D+00  0.0000000000000D+00  0.0000000000000D+00
206  2.0500000000000D+00  0.0000000000000D+00  0.0000000000000D+00
207  2.0600000000000D+00  0.0000000000000D+00  0.0000000000000D+00
208  2.0700000000000D+00  0.0000000000000D+00  0.0000000000000D+00
209  2.0800000000000D+00  0.0000000000000D+00  0.0000000000000D+00
210  2.0900000000000D+00  0.0000000000000D+00  0.0000000000000D+00
211  2.1000000000000D+00  0.0000000000000D+00  0.0000000000000D+00
212  2.1100000000000D+00  0.0000000000000D+00  0.0000000000000D+00
213  2.1200000000000D+00  0.0000000000000D+00  0.0000000000000D+00
214  2.1300000000000D+00  0.0000000000000D+00  0.0000000000000D+00
215  2.1400000000000D+00  0.0000000000000D+00  0.0000000000000D+00
216  2.1500000000000D+00  0.0000000000000D+00  0.0000000000000D+00
217  2.1600000000000D+00  0.0000000000000D+00  0.0000000000000D+00
218  2.1700000000000D+00  0.0000000000000D+00  0.0000000000000D+00
219  2.1800000000000D+00  0.0000000000000D+00  0.0000000000000D+00
220  2.1900000000000D+00  0.0000000000000D+00  0.0000000000000D+00
221  2.2000000000000D+00  0.0000000000000D+00  0.0000000000000D+00
222  2.2100000000000D+00  0.0000000000000D+00  0.0000000000000D+00
223  2.2200000000000D+00  0.0000000000000D+00  0.0000000000000D+00
224  2.2300000000000D+00  0.0000000000000D+00  0.0000000000000D+00
225  2.2400000000000D+00  0.0000000000000D+00  0.0000000000000D+00
226  2.2500000000000D+00  0.0000000000000D+00  0.0000000000000D+00
227  2.2600000000000D+00  0.0000000000000D+00  0.0000000000000D+00
228  2.2700000000000D+00  0.0000000000000D+00  0.0000000000000D+00
229  2.2800000000000D+00  0.0000000000000D+00  0.0000000000000D+00
230  2.2900000000000D+00  0.0000000000000D+00  0.0000000000000D+00
231  2.3000000000000D+00  0.0000000000000D+00  0.0000000000000D+00
232  2.3100000000000D+00  0.0000000000000D+00  0.0000000000000D+00
233  2.3200000000000D+00  0.0000000000000D+00  0.0000000000000D+00
234  2.3300000000000D+00  0.0000000000000D+00  0.0000000000000D+00
235  2.3400000000000D+00  0.0000000000000D+00  0.0000000000000D+00
236  2.3500000000000D+00  0.0000000000000D+00  0.0000000000000D+00
237  2.3600000000000D+00  0.0000000000000D+00  0.0000000000000D+00
238  2.3700000000000D+00  0.0000000000000D+00  0.0000000000000D+00
239  2.3800000000000D+00  0.0000000000000D+00  0.0000000000000D+00
240  2.3900000000000D+00  0.0000000000000D+00  0.0000000000000D+00
241  2.4000000000000D+00  0.0000000000000D+00  0.0000000000000D+00
242  2.4100000000000D+00  0.0000000000000D+00  0.0000000000000D+00
243  2.4200000000000D+00  0.0000000000000D+00  0.0000000000000D+00
244  2.4300000000000D+00  0.0000000000000D+00  0.0000000000000D+00
245  2.4400000000000D+00  0.0000000000000D+00  0.0000000000000D+00
246  2.4500000000000D+00  0.0000000000000D+00  0.0000000000000D+00
247  2.4600000000000D+00  0.0000000000000D+00  0.0000000000000D+00
248  2.4700000000000D+00  0.0000000000000D+00  0.0000000000000D+00
249  2.4800000000000D+00  0.0000000000000D+00  0.0000000000000D+00
250  2.4900000000000D+00  0.0000000000000D+00  0.0000000000000D+00
251  2.5000000000000D+00  0.0000000000000D+00  0.0000000000000D+00
252  2.5100000000000D+00  0.0000000000000D+00  0.0000000000000D+00
253  2.5200000000000D+00  0.0000000000000D+00  0.0000000000000D+00
254  2.5300000000000D+00  0.0000000000000D+00  0.0000000000000D+00
255  2.5400000000000D+00  0.0000000000000D+00  0.0000000000000D+00
256  2.5500000000000D+00  0.0000000000000D+00  0.0000000000000D+00
257  2.5600000000000D+00  0.0000000000000D+00  0.0000000000000D+00
258  2.5700000000000D+00  0.0000000000000D+00  0.0000000000000D+00
259  2.5800000000000D+00  0.0000000000000D+00  0.0000000000000D+00
260  2.5900000000000D+00  0.0000000000000D+00  0.0000000000000D+00
261  2.6000000000000D+00  0.0000000000000D+00  0.0000000000000D+00
262  2.6100000000000D+00  0.0000000000000D+00  0.0000000000000D+00
263  2.6200000000000D+00  0.0000000000000D+00  0.0000000000000D+00
264  2.6300000000000D+00  0.0000000000000D+00  0.0000000000000D+00
265  2.6400000000000D+00  0.0000000000000D+00  0.0000000000000D+00
266  2.6500000000000D+00  0.0000000000000D+00  0.0000000000000D+00
267  2.6600000000000D+00  0.0000000000000D+00  0.0000000000000D+00
268  2.6700000000000D+00  0.0000000000000D+00  0.0000000000000D+00
269  2.6800000000000D+00  0.0000000000000D+00  0.0000000000000D+00
270  2.6900000000000D+00  0.0000000000000D+00  0.0000000000000D+00
271  2.7000000000000D+00  0.0000000000000D+00  0.0000000000000D+00
272  2.7100000000000D+00  0.0000000000000D+00  0.0000000000000D+00
273  2.7200000000000D+00  0.0000000000000D+00  0.0000000000000D+00
274  2.7300000000000D+00  0.0000000000000D+00  0.0000000000000D+00
275  2.7400000000000D+00  0.0000000000000D+00  0.0000000000000D+00
276  2.7500000000000D+00  0.0000000000000D+00  0.0000000000000D+00
277  2.7600000000000D+00  0.0000000000000D+00  0.0000000000000D+00
278  2.7700000000000D+00  0.0000000000000D+00  0.0000000000000D+00
279  2.7800000000000D+00  0.0000000000000D+00  0.0000000000000D+00
280  2.7900000000000D+00  0.0000000000000D+00  0.0000000000000D+00
281  2.8000000000000D+00  0.0000000000000D+00  0.0000000000000D+00
282  2.8100000000000D+00  0.0000000000000D+00  0.0000000000000D+00
283  2.8200000000000D+00  0.0000000000000D+00  0.0000000000000D+00
284  2.8300000000000D+00  0.0000000000000D+00  0.0000000000000D+00
285  2.8400000000000D+00  0.0000000000000D+00  0.0000000000000D+00
286  2.8500000000000D+00  0.0000000000000D+00  0.0000000000000D+00
287  2.8600000000000D+00  0.0000000000000D+00  0.0000000000000D+00
288  2.8700000000000D+00  0.0000000000000D+00  0.0000000000000D+00
289  2.8800000000000D+00  0.0000000000000D+00  0.0000000000000D+00
290  2.8900000000000D+00  0.0000000000000D+00  0.0000000000000D+00
291  2.9000000000000D+00  0.0000000000000D+00  0.0000000000000D+00
292  2.9100000000000D+00  0.0000000000000D+00  0.0000000000000D+00
293  2.9200000000000D+00  0.0000000000000D+00  0.0000000000000D+00
294  2.9300000000000D+00  0.0000000000000D+00  0.0000000000000D+00
295  2.9400000000000D+00  0.0000000000000D+00  0.0000000000000D+00
296  2.9500000000000D+00  0.0000000000000D+00  0.0000000000000D+00
297  2.9600000000000D+00  0.0000000000000D+00  0.0000000000000D+00
298  2.9700000000000D+00  0.0000000000000D+00  0.0000000000000D+00
299  2.9800000000000D+00  0.0000000000000D+00  0.0000000000000D+00
300  2.9900000000000D+00  0.0000000000000D+00  0.0000000000000D+00
301  3.0000000000000D+00  0.0000000000000D+00  0.0000000000000D+00
302  3.0100000000000D+00  0.0000000000000D+00  0.0000000000000D+00
303  3.0200000000000D+00  0.0000000000000D+00  0.0000000000000D+00
304  3.0300000000000D+00  0.0000000000000D+00  0.0000000000000D+00
305  3.0400000000000D+00  0.0000000000000D+00  0.0000000000000D+00
306  3.0500000000000D+00  0.0000000000000D+00  0.0000000000000D+00
307  3.0600000000000D+00  0.0000000000000D+00  0.0000000000000D+00
308  3.0700000000000D+00  0.0000000000000D+00  0.0000000000000D+00
309  3.0800000000000D+00  0.0000000000000D+00  0.0000000000000D+00
310  3.0900000000000D+00  0.0000000000000D+00  0.0000000000000D+00
311  3.1000000000000D+00  0.0000000000000D+00  0.0000000000000D+00
312  3.1100000000000D+00  0.0000000000000D+00  0.0000000000000D+00
313  3.1200000000000D+00  0.0000000000000D+00  0.0000000000000D+00
314  3.1300000000000D+00  0.0000000000000D+00  0.0000000000000D+00
315  3.1400000000000D+00  0.0000000000000D+00  0.0000000000000D+00
316  3.1500000000000D+00  0.0000000000000D+00  0.0000000000000D+00
317  3.1600000000000D+00  0.0000000000000D+00  0.0000000000000D+00
318  3.1700000000000D+00  0.0000000000000D+00  0.0000000000000D+00
319  3.1800000000000D+00  0.0000000000000D+00  0.0000000000000D+00
320  3.1900000000000D+00  0.0000000000000D+00  0.0000000000000D+00
321  3.2000000000000D+00  0.0000000000000D+00  0.0000000000000D+00
322  3.2100000000000D+00  0.0000000000000D+00  0.0000000000000D+00
323  3.2200000000000D+00  0.0000000000000D+00  0.0000000000000D+00
324  3.2300000000000D+00  0.0000000000000D+00  0.0000000000000D+00
325  3.2400000000000D+00  0.0000000000000D+00  0.0000000000000D+00
326  3.2500000000000D+00  0.0000000000000D+00  0.0000000000000D+00
327  3.2600000000000D+00  0.0000000000000D+00  0.0000000000000D+00
328  3.2700000000000D+00  0.0000000000000D+00  0.0000000000000D+00
329  3.2800000000000D+00  0.0000000000000D+00  0.0000000000000D+00
330  3.2900000000000D+00  0.0000000000000D+00  0.0000000000000D+00
331  3.3000000000000D+00  0.0000000000000D+00  0.0000000000000D+00
332  3.3100000000000D+00  0.0000000000000D+00  0.0000000000000D+00
333  3.3200000000000D+00  0.0000000000000D+00  0.0000000000000D+00
334  3.3300000000000D+00  0.0000000000000D+00  0.0000000000000D+00
335  3.3400000000000D+00  0.0000000000000D+00  0.0000000000000D+00
336  3.3500000000000D+00  0.0000000000000D+00  0.0000000000000D+00
337  3.3600000000000D+00  0.0000000000000D+00  0.0000000000000D+00
338  3.3700000000000D+00  0.0000000000000D+00  0.0000000000000D+00
339  3.3800000000000D+00  0.0000000000000D+00  0.0000000000000D+00
340  3.3900000000000D+00  0.0000000000000D+00  0.0000000000000D+00
341  3.4000000000000D+00  0.0000000000000D+00  0.0000000000000D+00
342  3.4100000000000D+00  0.0000000000000D+00  0.0000000000000D+00
343  3.4200000000000D+00  0.0000000000000D+00  0.0000000000000D+00
344  3.4300000000000D+00  0.0000000000000D+00  0.0000000000000D+00
345  3.4400000000000D+00  0.0000000000000D+00  0.0000000000000D+00
346  3.4500000000000D+00  0.0000000000000D+00  0.0000000000000D+00
347  3.4600000000000D+00  0.0000000000000D+00  0.0000000000000D+00
348  3.4700000000000D+00  0.0000000000000D+00  0.0000000000000D+00
349  3.4800000000000D+00  0.0000000000000D+00  0.0000000000000D+00
350  3.4900000000000D+00  0.0000000000000D+00  0.0000000000000D+00
351  3.5000000000000D+00  0.0000000000000D+00  0.0000000000000D+00
352  3.5100000000000D+00  0.0000000000000D+00  0.0000000000000D+00
353  3.5200000000000D+00  0.0000000000000D+00  0.0000000000000D+00
354  3.5300000000000D+00  0.0000000000000D+00  0.0000000000000D+00
355  3.5400000000000D+00  0.0000000000000D+00  0.0000000000000D+00
356  3.5500000000000D+00  0.0000000000000D+00  0.0000000000000D+00
357  3.5600000000000D+00  0.0000000000000D+00  0.0000000000000D+00
358  3.5700000000000D+00  0.0000000000000D+00  0.0000000000000D+00
359  3.5800000000000D+00  0.0000000000000D+00  0.0000000000000D+00
360  3.5900000000000D+00  0.0000000000000D+00  0.0000000000000D+00
361  3.6000000000000D+00  0.0000000000000D+00  0.0000000000000D+00
362  3.6100000000000D+00  0.0000000000000D+00  0.0000000000000D+00
363  3.6200000000000D+00  0.0000000000000D+00  0.0000000000000D+00
364  3.6300000000000D+00  0.0000000000000D+00  0.0000000000000D+00
365  3.6400000000000D+00  0.0000000000000D+00  0.0000000000000D+00
366  3.6500000000000D+00  0.0000000000000D+00  0.0000000000000D+00
367  3.6600000000000D+00  0.0000000000000D+00  0.0000000000000D+00
368  3.6700000000000D+00  0.0000000000000D+00  0.0000000000000D+00
369  3.6800000000000D+00  0.0000000000000D+00  0.0000000000000D+00
370  3.6900000000000D+00  0.0000000000000D+00  0.0000000000000D+00
371  3.7000000000000D+00  0.0000000000000D+00  0.0000000000000D+00
372  3.7100000000000D+00  0.0000000000000D+00  0.0000000000000D+00
373  3.7200000000000D+00  0.0000000000000D+00  0.0000000000000D+00
374  3.7300000000000D+00  0.0000000000000D+00  0.0000000000000D+00
375  3.7400000000000D+00  0.0000000000000D+00  0.0000000000000D+00
376  3.7500000000000D+00  0.0000000000000D+00  0.0000000000000D+00
377  3.7600000000000D+00  0.0000000000000D+00  0.0000000000000D+00
378  3.7700000000000D+00  0.0000000000000D+00  0.0000000000000D+00
379  3.7800000000000D+00  0.0000000000000D+00  0.0000000000000D+00
380  3.7900000000000D+00  0.0000000000000D+00  0.0000000000000D+00
381  3.8000000000000D+00  0.0000000000000D+00  0.0000000000000D+00
382  3.8100000000000D+00  0.0000000000000D+00  0.0000000000000D+00
383  3.8200000000000D+00  0.0000000000000D+00  0.0000000000000D+00
384  3.8300000000000D+00  0.0000000000000D+00  0.0000000000000D+00
385  3.8400000000000D+00  0.0000000000000D+00  0.0000000000000D+00
386  3.8500000000000D+00  0.0000000000000D+00  0.0000000000000D+00
387  3.8600000000000D+00  0.0000000000000D+00  0.0000000000000D+00
388  3.8700000000000D+00  0.0000000000000D+00  0.0000000000000D+00
389  3.8800000000000D+00  0.0000000000000D+00  0.0000000000000D+00
390  3.8900000000000D+00  0.0000000000000D+00  0.0000000000000D+00
391  3.9000000000000D+00  0.0000000000000D+00  0.0000000000000D+00
392  3.9100000000000D+00  0.0000000000000D+00  0.0000000000000D+00
393  3.9200000000000D+00  0.0000000000000D+00  0.0000000000000D+00
394  3.9300000000000D+00  0.0000000000000D+00  0.0000000000000D+00
395  3.9400000000000D+00  0.0000000000000D+00  0.0000000000000D+00
396  3.9500000000000D+00  0.0000000000000D+00  0.0000000000000D+00
397  3.9600000000000D+00  0.0000000000000D+00  0.0000000000000D+00
398  3.9700000000000D+00  0.0000000000000D+00  0.0000000000000D+00
399  3.9800000000000D+00  0.0000000000000D+00  0.0000000000000D+00
400  3.9900000000000D+00  0.0000000000000D+00  0.0000000000000D+00
1                        -2.2192540846541D+00 -5.7691385127364D-01
1  0.0000000000000D+00  2.6175069417489D-07 -5.0233175219461D-07
2  1.0000000000000D-02  5.9553352657279D-03 -5.6128143697107D-03
3  2.0000000000000D-02  2.3674324556342D-02 -2.2205823193306D-02
4  3.0000000000000D-02  5.2720924698853D-02 -4.9052105366027D-02
5  4.0000000000000D-02  9.2384905008288D-02 -8.4971051260176D-02
6  5.0000000000000D-02  1.4170598599392D-01 -1.2837354920666D-01
7  6.0000000000000D-02  1.9950640997840D-01 -1.7732288752475D-01
8  7.0000000000000D-02  2.6443077250779D-01 -2.2960911558628D-01
9  8.0000000000000D-02  3.3499168167978D-01 -2.8283410506888D-01
10  9.0000000000000D-02  4.0961960186091D-01 -3.3450415001085D-01
11  1.0000000000000D-01  4.8671508627300D-01 -3.8212665623738D-01
12  1.1000000000000D-01  5.6470151510435D-01 -4.2330730781505D-01
13  1.2000000000000D-01  6.4207643539343D-01 -4.5584406660060D-01
14  1.3000000000000D-01  7.1745964680284D-01 -4.7781446217699D-01
15  1.4000000000000D-01  7.8963629201562D-01 -4.8765286029083D-01
16  1.5000000000000D-01  8.5759338793185D-01 -4.8421475043425D-01
17  1.6000000000000D-01  9.2054846799582D-01 -4.6682555521871D-01
18  1.7000000000000D-01  9.7796928868546D-01 -4.3531201946702D-01
19  1.8000000000000D-01  1.0295838745601D+00 -3.9001486593036D-01
20  1.9000000000000D-01  1.0753805250047D+00 -3.3178208493258D-01
21  2.0000000000000D-01  1.1155977696370D+00 -2.6194293284792D-01
22  2.1000000000000D-01  1.1507046253992D+00 -1.8226342384337D-01
23  2.2000000000000D-01  1.1813718636391D+00 -9.4884785302734D-02
24  2.3000000000000D-01  1.2084353273416D+00 -2.2469850261936D-03
25  2.4000000000000D-01  1.2328526351989D+00  9.2999995480606D-02
26  2.5000000000000D-01  1.2556548597119D+00  1.8809399330954D-01
27  2.6000000000000D-01  1.2778949618651D+00  2.8026408951683D-01
28  2.7000000000000D-01  1.3005948978704D+00  3.6683587440116D-01
29  2.8000000000000D-01  1.3246933789617D+00  4.4533469199373D-01
30  2.9000000000000D-01  1.3509962604976D+00  5.1358303341365D-01
31  3.0000000000000D-01  1.3801314614048D+00  5.6978841697859D-01
32  3.1000000000000D-01  1.4125101714575D+00  6.1261839417411D-01
33  3.2000000000000D-01  1.4482958966121D+00  6.4125974513708D-01
34  3.3000000000000D-01  1.4873826284520D+00  6.5545946114449D-01
35  3.4000000000000D-01  1.5293831116073D+00  6.5554573669425D-01
36  3.5000000000000D-01  1.5736278334032D+00  6.4242788876576D-01
37  3.6000000000000D-01  1.6191749849122D+00  6.1757486177800D-01
38  3.7000000000000D-01  1.6648312550000D+00  5.8297273781782D-01
39  3.8000000000000D-01  1.7091829322609D+00  5.4106242626758D-01
40  3.9000000000000D-01  1.7506364174728D+00  4.9465942832603D-01
41  4.0000000000000D-01  1.7874669044345D+00  4.4685823438587D-01
42  4.1000000000000D-01  1.8178736819605D+00  4.0092449204934D-01
43  4.2000000000000D-01  1.8400402553551D+00  3.6017855851406D-01