<?xml version="1.0" encoding="UTF-8" ?>
<psml version="1.1" energy_unit="hartree" length_unit="bohr"
 uuid="40ba2090-5155-11e8-53f4-816dd727358a"
 xmlns="http://esl.cecam.org/PSML/ns/1.1">
<provenance creator="ONCVPSP-3.3.0+psml-3.3.0-73 (fully-relativistic)"
 date="2018-05-06">
<annotation action="semilocal-pseudopotential-generation"
 action-cont="projectors-generation" />
<input-file name="oncvpsp-input">
<![CDATA[# atsym z nc nv iexc psfile
Li 3 0 2 4 both
# n l f
1 0 2.0
2 0 1.0
# lmax
1
# l rc ep ncon nbas qcut
0 1.2 0.0 4 8 9.8
1 1.0 0.0 4 8 9.2
# lloc lpopt rc5 dvloc0
4 5 0.9 0.0
# l nproj debl
0 2 1.0
1 2 1.0
# icmod fcfact
0 0.25
# epsh1 epsh2 depsh
-12.0 12.0 0.02
# rlmax drl
4.0 0.01
 0
]]>
</input-file>
</provenance>
<pseudo-atom-spec atomic-label="Li" atomic-number="3" z-pseudo="3"
 flavor="Hamann&apos;s oncvpsp" relativity="dirac" spin-dft="no"
 core-corrections="no">
<annotation pseudo-energy="-7.23780048190" />
<exchange-correlation>
<annotation oncvpsp-xc-code="4" oncvpsp-xc-type="GGA -- Perdew-Burke-Ernzerhof" />
<libxc-info number-of-functionals="2">
<functional name="Perdew, Burke &amp; Ernzerhof (GGA)" type="exchange" id="101" />
<functional name="Perdew, Burke &amp; Ernzerhof (GGA)" type="correlation"
 id="130" />
</libxc-info>
</exchange-correlation>
<valence-configuration total-valence-charge="3">
<shell n="1" l="s" occupation="2" />
<shell n="2" l="s" occupation="1" />
</valence-configuration>
</pseudo-atom-spec>
<grid npts="457">
<annotation type="sampled from oncvpsp log grid"
 recipe="r(i:1..N) = r1*exp(a*(i-1)) + r=0; resampled"
 recipe-cont="r1: scale; a: step" scale="0.166666666667E-03"
 step="0.119285708653E-01" delta="0.500000000000E-02" rmax="44.2430787916" />
<grid-data>
  0.000000000000E+00  5.052139405559E-03  1.009125198494E-02  1.513848713291E-02
  2.015648390690E-02  2.528392618201E-02  3.060079530245E-02  3.573381431355E-02
  4.074412671733E-02  4.590607257001E-02  5.110869023733E-02  5.622621532664E-02
  6.185615939828E-02  6.724291609153E-02  7.309877962804E-02  7.852233426508E-02
  8.434828884711E-02  8.953211401853E-02  9.503452352372E-02  1.008750967224E-01
  1.070746162705E-01  1.123074526400E-01  1.177960226038E-01  1.235528241010E-01
  1.295909658570E-01  1.359241972326E-01  1.425669395327E-01  1.477611846294E-01
  1.531446754392E-01  1.587243068888E-01  1.645072251130E-01  1.705008366068E-01
  1.767128177115E-01  1.831511244461E-01  1.898240026970E-01  1.967399987792E-01
  2.039079703814E-01  2.113370979113E-01  2.164396208033E-01  2.216653390080E-01
  2.270172269530E-01  2.324983308805E-01  2.381117705813E-01  2.438607411702E-01
  2.497485149050E-01  2.557784430489E-01  2.619539577779E-01  2.682785741345E-01
  2.747558920284E-01  2.813895982855E-01  2.881834687465E-01  2.951413704159E-01
  3.022672636632E-01  3.095652044771E-01  3.170393467740E-01  3.246939447625E-01
  3.325333553649E-01  3.405620406968E-01  3.487845706074E-01  3.572056252801E-01
  3.658299978969E-01  3.746625973661E-01  3.837084511169E-01  3.929727079607E-01
  4.024606410217E-01  4.121776507385E-01  4.221292679380E-01  4.271948191532E-01
  4.323211569831E-01  4.375090108669E-01  4.427591189973E-01  4.480722284252E-01
  4.534490951663E-01  4.588904843083E-01  4.643971701200E-01  4.699699361615E-01
  4.756095753954E-01  4.813168903001E-01  4.870926929837E-01  4.929378052995E-01
  4.988530589631E-01  5.048392956707E-01  5.108973672188E-01  5.170281356254E-01
  5.232324732529E-01  5.295112629319E-01  5.358653980871E-01  5.422957828641E-01
  5.488033322585E-01  5.553889722456E-01  5.620536399126E-01  5.687982835915E-01
  5.756238629946E-01  5.825313493505E-01  5.895217255428E-01  5.965959862493E-01
  6.037551380843E-01  6.110001997413E-01  6.183322021382E-01  6.257521885638E-01
  6.332612148266E-01  6.408603494045E-01  6.485506735974E-01  6.563332816805E-01
  6.642092810607E-01  6.721797924334E-01  6.802459499426E-01  6.884089013419E-01
  6.966698081580E-01  7.050298458559E-01  7.134902040062E-01  7.220520864543E-01
  7.307167114917E-01  7.394853120296E-01  7.483591357740E-01  7.573394454033E-01
  7.664275187481E-01  7.756246489731E-01  7.849321447608E-01  7.943513304979E-01
  8.038835464639E-01  8.135301490214E-01  8.232925108097E-01  8.331720209394E-01
  8.431700851907E-01  8.532881262130E-01  8.635275837275E-01  8.738899147323E-01
  8.843765937091E-01  8.949891128336E-01  9.057289821876E-01  9.165977299738E-01
  9.275969027335E-01  9.387280655663E-01  9.499928023531E-01  9.613927159813E-01
  9.729294285731E-01  9.846045817160E-01  9.964198366966E-01  1.008376874737E+00
  1.020477397234E+00  1.032723126001E+00  1.045115803513E+00  1.057657193155E+00
  1.070349079473E+00  1.083193268426E+00  1.096191587647E+00  1.109345886699E+00
  1.122658037340E+00  1.136129933788E+00  1.149763492993E+00  1.163560654909E+00
  1.177523382768E+00  1.191653663361E+00  1.205953507321E+00  1.220424949409E+00
  1.235070048802E+00  1.249890889388E+00  1.264889580060E+00  1.280068255021E+00
  1.295429074081E+00  1.310974222970E+00  1.326705913646E+00  1.342626384610E+00
  1.358737901225E+00  1.375042756040E+00  1.391543269112E+00  1.408241788342E+00
  1.425140689802E+00  1.442242378079E+00  1.459549286616E+00  1.477063878056E+00
  1.494788644592E+00  1.512726108328E+00  1.530878821627E+00  1.549249367487E+00
  1.567840359897E+00  1.586654444216E+00  1.605694297546E+00  1.624962629117E+00
  1.644462180666E+00  1.664195726834E+00  1.684166075556E+00  1.704376068463E+00
  1.724828581284E+00  1.745526524260E+00  1.766472842551E+00  1.787670516662E+00
  1.809122562861E+00  1.830832033616E+00  1.852802018019E+00  1.875035642235E+00
  1.897536069942E+00  1.920306502782E+00  1.943350180815E+00  1.966670382985E+00
  1.990270427581E+00  2.014153672711E+00  2.038323516784E+00  2.062783398985E+00
  2.087536799773E+00  2.112587241371E+00  2.137938288267E+00  2.163593547726E+00
  2.189556670299E+00  2.215831350343E+00  2.242421326547E+00  2.269330382465E+00
  2.296562347055E+00  2.324121095219E+00  2.352010548362E+00  2.380234674942E+00
  2.408797491042E+00  2.437703060934E+00  2.466955497665E+00  2.496558963637E+00
  2.526517671201E+00  2.556835883255E+00  2.587517913855E+00  2.618568128821E+00
  2.649990946367E+00  2.681790837723E+00  2.713972327776E+00  2.746539995709E+00
  2.779498475658E+00  2.812852457365E+00  2.846606686854E+00  2.880765967096E+00
  2.915335158701E+00  2.950319180606E+00  2.985723010773E+00  3.021551686902E+00
  3.057810307145E+00  3.094504030831E+00  3.131638079201E+00  3.169217736151E+00
  3.207248348985E+00  3.245735329173E+00  3.284684153123E+00  3.324100362960E+00
  3.363989567316E+00  3.404357442124E+00  3.445209731429E+00  3.486552248206E+00
  3.528390875185E+00  3.570731565687E+00  3.613580344475E+00  3.656943308609E+00
  3.700826628312E+00  3.745236547852E+00  3.790179386426E+00  3.835661539063E+00
  3.881689477532E+00  3.928269751262E+00  3.975408988278E+00  4.023113896137E+00
  4.071391262890E+00  4.120247958045E+00  4.169690933542E+00  4.219727224744E+00
  4.270363951441E+00  4.321608318858E+00  4.373467618685E+00  4.425949230109E+00
  4.479060620870E+00  4.532809348321E+00  4.587203060501E+00  4.642249497227E+00
  4.697956491193E+00  4.754331969088E+00  4.811383952717E+00  4.869120560149E+00
  4.927550006871E+00  4.986680606954E+00  5.046520774237E+00  5.107079023528E+00
  5.168363971810E+00  5.230384339472E+00  5.293148951546E+00  5.356666738964E+00
  5.420946739832E+00  5.485998100710E+00  5.551830077918E+00  5.618452038853E+00
  5.685873463319E+00  5.754103944879E+00  5.823153192218E+00  5.893031030524E+00
  5.963747402891E+00  6.035312371725E+00  6.107736120186E+00  6.181028953628E+00
  6.255201301072E+00  6.330263716685E+00  6.406226881285E+00  6.483101603860E+00
  6.560898823107E+00  6.639629608984E+00  6.719305164292E+00  6.799936826263E+00
  6.881536068178E+00  6.964114500997E+00  7.047683875009E+00  7.132256081509E+00
  7.217843154487E+00  7.304457272341E+00  7.392110759609E+00  7.480816088724E+00
  7.570585881789E+00  7.661432912370E+00  7.753370107319E+00  7.846410548606E+00
  7.940567475190E+00  8.035854284892E+00  8.132284536311E+00  8.229871950746E+00
  8.328630414155E+00  8.428573979125E+00  8.529716866875E+00  8.632073469277E+00
  8.735658350908E+00  8.840486251119E+00  8.946572086133E+00  9.053930951166E+00
  9.162578122580E+00  9.272529060051E+00  9.383799408772E+00  9.496405001677E+00
  9.610361861697E+00  9.725686204038E+00  9.842394438486E+00  9.960503171748E+00
  1.008002920981E+01  1.020098956033E+01  1.032340143505E+01  1.044728225227E+01
  1.057264963930E+01  1.069952143497E+01  1.082791569219E+01  1.095785068050E+01
  1.108934488866E+01  1.122241702733E+01  1.135708603165E+01  1.149337106403E+01
  1.163129151680E+01  1.177086701500E+01  1.191211741918E+01  1.205506282821E+01
  1.219972358215E+01  1.234612026514E+01  1.249427370832E+01  1.264420499282E+01
  1.279593545273E+01  1.294948667817E+01  1.310488051830E+01  1.326213908452E+01
  1.342128475354E+01  1.358234017058E+01  1.374532825263E+01  1.391027219166E+01
  1.407719545796E+01  1.424612180345E+01  1.441707526510E+01  1.459008016828E+01
  1.476516113030E+01  1.494234306386E+01  1.512165118063E+01  1.530311099479E+01
  1.548674832673E+01  1.567258930665E+01  1.586066037833E+01  1.605098830287E+01
  1.624360016251E+01  1.643852336446E+01  1.663578564483E+01  1.683541507257E+01
  1.703744005344E+01  1.724188933408E+01  1.744879200609E+01  1.765817751016E+01
  1.787007564028E+01  1.808451654797E+01  1.830153074654E+01  1.852114911550E+01
  1.874340290489E+01  1.896832373975E+01  1.919594362462E+01  1.942629494812E+01
  1.965941048750E+01  1.989532341335E+01  2.013406729431E+01  2.037567610184E+01
  2.062018421506E+01  2.086762642564E+01  2.111803794275E+01  2.137145439806E+01
  2.162791185084E+01  2.188744679305E+01  2.215009615457E+01  2.241589730842E+01
  2.268488807612E+01  2.295710673303E+01  2.323259201383E+01  2.351138311800E+01
  2.379351971541E+01  2.407904195200E+01  2.436799045542E+01  2.466040634089E+01
  2.495633121698E+01  2.525580719158E+01  2.555887687788E+01  2.586558340041E+01
  2.617597040122E+01  2.649008204603E+01  2.680796303059E+01  2.712965858695E+01
  2.745521449000E+01  2.778467706388E+01  2.811809318864E+01  2.845551030691E+01
  2.879697643059E+01  2.914254014776E+01  2.949225062953E+01  2.984615763708E+01
  3.020431152873E+01  3.056676326707E+01  3.093356442628E+01  3.130476719939E+01
  3.168042440579E+01  3.206058949866E+01  3.244531657264E+01  3.283466037151E+01
  3.322867629597E+01  3.362742041152E+01  3.403094945646E+01  3.443932084994E+01
  3.485259270014E+01  3.527082381254E+01  3.569407369829E+01  3.612240258267E+01
  3.655587141366E+01  3.699454187062E+01  3.743847637307E+01  3.788773808955E+01
  3.834239094662E+01  3.880249963798E+01  3.926812963364E+01  3.973934718924E+01
  4.021621935551E+01  4.069881398778E+01  4.118719975563E+01  4.168144615270E+01
  4.218162350653E+01  4.268780298861E+01  4.320005662447E+01  4.371845730397E+01
  4.424307879162E+01
</grid-data>
</grid>
<valence-charge total-charge="3" is-unscreening-charge="yes"
 rescaled-to-z-pseudo="no">
<radfunc>
<data npts="457">
  4.371072589990E+01  4.370464579958E+01  4.368647262919E+01  4.365616383369E+01
  4.361404583220E+01  4.355870339697E+01  4.348823314210E+01  4.340762520868E+01
  4.331710057564E+01  4.321168199368E+01  4.309304742517E+01  4.296432829834E+01
  4.280908135178E+01  4.264731263553E+01  4.245696967516E+01  4.226740380753E+01
  4.204977027661E+01  4.184412534193E+01  4.161369402808E+01  4.135566818656E+01
  4.106696943647E+01  4.081167682072E+01  4.053275228740E+01  4.022821870122E+01
  3.989597736162E+01  3.953381017216E+01  3.913938450405E+01  3.882093210996E+01
  3.848189992507E+01  3.812119751805E+01  3.773771329527E+01  3.733032046232E+01
  3.689788422598E+01  3.643927037678E+01  3.595335539578E+01  3.543903822934E+01
  3.489525387191E+01  3.432098888752E+01  3.392074214018E+01  3.350626821373E+01
  3.307732873269E+01  3.263370870364E+01  3.217521974111E+01  3.170170348360E+01
  3.121303519339E+01  3.070912753018E+01  3.018993448470E+01  2.965545545414E+01
  2.910573943628E+01  2.854088931387E+01  2.796106619462E+01  2.736649376608E+01
  2.675746261751E+01  2.613433447374E+01  2.549754627848E+01  2.484761405662E+01
  2.418513647754E+01  2.351079803385E+01  2.282537174256E+01  2.212972126963E+01
  2.142480237297E+01  2.071166355522E+01  1.999144581497E+01  1.926538138540E+01
  1.853479135141E+01  1.780108204243E+01  1.706574010718E+01  1.669794191829E+01
  1.633032619010E+01  1.596309828796E+01  1.559646714696E+01  1.523064494623E+01
  1.486584675956E+01  1.450229018259E+01  1.414019493688E+01  1.377978245141E+01
  1.342127542215E+01  1.306489735058E+01  1.271087206212E+01  1.235942320571E+01
  1.201077373587E+01  1.166514537886E+01  1.132275808467E+01  1.098382946673E+01
  1.064857423151E+01  1.031720360038E+01  9.989924726059E+00  9.666940106421E+00
  9.348446998421E+00  9.034636835086E+00  8.725694648639E+00  8.421798502944E+00
  8.123118938542E+00  7.829818433597E+00  7.542050884145E+00  7.259961107017E+00
  6.983684368818E+00  6.713345944275E+00  6.449060707210E+00  6.190932757259E+00
  5.939055085335E+00  5.693509280630E+00  5.454365281753E+00  5.221681174349E+00
  4.995503037265E+00  4.775864839012E+00  4.562788385955E+00  4.356283323272E+00
  4.156347189370E+00  3.962965524018E+00  3.776112030059E+00  3.595748788142E+00
  3.421826523461E+00  3.254284923112E+00  3.093053002210E+00  2.938049516536E+00
  2.789183419103E+00  2.646354357640E+00  2.509453209692E+00  2.378362651735E+00
  2.252957758420E+00  2.133106627907E+00  2.018671029004E+00  1.909507065790E+00
  1.805465855282E+00  1.706394213700E+00  1.612135346944E+00  1.522529540946E+00
  1.437414847720E+00  1.356627763082E+00  1.280003892236E+00  1.207378599655E+00
  1.138587639941E+00  1.073467766634E+00  1.011857316196E+00  9.535967646963E-01
  8.985292549766E-01  8.465010922852E-01  7.973622066028E-01  7.509665800083E-01
  7.071726375528E-01  6.658436001585E-01  6.268477980601E-01  5.900589432601E-01
  5.553563593833E-01  5.226251672052E-01  4.917564240207E-01  4.626472149274E-01
  4.352006940695E-01  4.093260739456E-01  3.849385610681E-01  3.619592366196E-01
  3.403148812943E-01  3.199377442872E-01  3.007652573964E-01  2.827395063464E-01
  2.658059322000E-01  2.499116826039E-01  2.350056128064E-01  2.210382580173E-01
  2.079618209395E-01  1.957301558234E-01  1.842987507642E-01  1.736247082093E-01
  1.636667238573E-01  1.543850641353E-01  1.457415424518E-01  1.376994944358E-01
  1.302237523942E-01  1.232806192305E-01  1.168378420846E-01  1.108645859638E-01
  1.053314076246E-01  1.002102299453E-01  9.547431696699E-02  9.109824967111E-02
  8.705790238826E-02  8.333041946924E-02  7.989419148409E-02  7.672882974054E-02
  7.381513734044E-02  7.113507437230E-02  6.867171427816E-02  6.640918814299E-02
  6.433261397058E-02  6.242800940603E-02  6.068218932874E-02  5.908265443112E-02
  5.761748253558E-02  5.627523874445E-02  5.504492030387E-02  5.391594509351E-02
  5.287818045640E-02  5.192199724340E-02  5.103832854298E-02  5.021871555657E-02
  4.945533129418E-02  4.874098116728E-02  4.806908491373E-02  4.743364615654E-02
  4.682921542059E-02  4.625085095641E-02  4.569408014821E-02  4.515486302137E-02
  4.462955850421E-02  4.411489357986E-02  4.360793519047E-02  4.310606463666E-02
  4.260695418408E-02  4.210854560219E-02  4.160903039339E-02  4.110683150712E-02
  4.060058636907E-02  4.008913108537E-02  3.957148570617E-02  3.904684045232E-02
  3.851454282395E-02  3.797408552104E-02  3.742509511517E-02  3.686732141829E-02
  3.630062749997E-02  3.572498030891E-02  3.514044185803E-02  3.454716093596E-02
  3.394536531009E-02  3.333535438929E-02  3.271749231634E-02  3.209220146259E-02
  3.145995629918E-02  3.082127762114E-02  3.017672710226E-02  2.952690216062E-02
  2.887243111560E-02  2.821396861916E-02  2.755219134487E-02  2.688779391970E-02
  2.622148508431E-02  2.555398406854E-02  2.488601716966E-02  2.421831452148E-02
  2.355160704330E-02  2.288662355788E-02  2.222408806864E-02  2.156471718654E-02
  2.090921769761E-02  2.025828426312E-02  1.961259724449E-02  1.897282064641E-02
  1.833960017198E-02  1.771356138511E-02  1.709530797614E-02  1.648542012830E-02
  1.588445298344E-02  1.529293520733E-02  1.471136765582E-02  1.414022214490E-02
  1.357994032861E-02  1.303093269025E-02  1.249357765305E-02  1.196822081716E-02
  1.145517433016E-02  1.095471639835E-02  1.046709094551E-02  9.992507425137E-03
  9.531140791006E-03  9.083131629402E-03  8.648586454640E-03  8.227578167548E-03
  7.820146674531E-03  7.426299662717E-03  7.046013524624E-03  6.679234423816E-03
  6.325879491251E-03  5.985838140410E-03  5.658973488065E-03  5.345123867388E-03
  5.044104414011E-03  4.755708718393E-03  4.479710520773E-03  4.215865437339E-03
  3.963912701994E-03  3.723576909443E-03  3.494569746142E-03  3.276591696559E-03
  3.069333713304E-03  2.872478840793E-03  2.685703783354E-03  2.508680409860E-03
  2.341077188261E-03  2.182560544546E-03  2.032796141872E-03  1.891450076710E-03
  1.758189989911E-03  1.632686091588E-03  1.514612099604E-03  1.403646092298E-03
  1.299471276808E-03  1.201776674987E-03  1.110257729499E-03  1.024616833141E-03
  9.445637848426E-04  8.698161761013E-04  8.000997118825E-04  7.351484701520E-04
  6.747051042677E-04  6.185209928155E-04  5.663563406227E-04  5.179802359392E-04
  4.731706674248E-04  4.317145049581E-04  3.934074482220E-04  3.580539465673E-04
  3.254670934973E-04  2.954684988833E-04  2.678881417553E-04  2.425642062591E-04
  2.193429031204E-04  1.980782787131E-04  1.786320136041E-04  1.608732122366E-04
  1.446781852236E-04  1.299302255587E-04  1.165193799022E-04  1.043422159825E-04
  9.330158704762E-05  8.330639422245E-05  7.427134756144E-05  6.611672653754E-05
  5.876814067002E-05  5.215629096531E-05  4.621673282245E-05  4.088964103604E-05
  3.611957751219E-05  3.185526229517E-05  2.804934848225E-05  2.465820158096E-05
  2.164168383551E-05  1.896294401732E-05  1.658821313783E-05  1.448660650123E-05
  1.262993246985E-05  1.099250826677E-05  9.550983089875E-06  8.284168759131E-06
  7.172878065745E-06  6.199770938846E-06  5.349208493063E-06  4.607114969812E-06
  3.960847536811E-06  3.399073865025E-06  2.911657360257E-06  2.489549888461E-06
  2.124691799726E-06  1.809919026029E-06  1.538877002275E-06  1.305941138915E-06
  1.106143557392E-06  9.351057867108E-07  7.889771103581E-07  6.643782473041E-07
  5.583500487091E-07  4.683068928393E-07  3.919944643035E-07  3.274516097019E-07
  2.729759698132E-07  2.270930982077E-07  1.885287873663E-07  1.561843356995E-07
  1.291145020398E-07  1.065079079629E-07  8.766966245172E-08  7.200599775216E-08
  5.901071959425E-08  4.825328911398E-08  3.936836767488E-08  3.204666924348E-08
  2.602697792743E-08  2.108920066913E-08  1.704833684650E-08  1.374925762830E-08
  1.106219834066E-08  8.878876812304E-09  7.109159678433E-09  5.678206944710E-09
  4.524032760673E-09  3.595427347026E-09  2.850191391700E-09  2.253640005601E-09
  1.777338544120E-09  1.398037290016E-09  1.096776193152E-09  8.581346092945E-10
  6.696043096643E-10  5.210669804477E-10  4.043600311758E-10  3.129168152268E-10
  2.414693657276E-10  1.858034948416E-10  1.425576209754E-10  1.090580019658E-10
  8.318418596415E-11  6.325946670164E-11  4.796196536632E-11  3.625267486958E-11
  2.731740951474E-11  2.052011802690E-11  1.536545306339E-11  1.146885676785E-11
  8.532729427162E-12  6.327505412125E-12  4.676674823114E-12  3.444967139054E-12
  2.529060328126E-12  1.850300189951E-12  1.349014342150E-12  9.800868130119E-13
  7.095256992305E-13  5.118103723714E-13  3.678484472951E-13  2.634079902604E-13
  1.879187759002E-13  1.335590776716E-13  9.456255571916E-14  6.669416551175E-14
  4.685537126275E-14  3.278790110127E-14  2.285230861737E-14  1.586309979194E-14
  1.096646266579E-14  7.549954999207E-15  5.176067667401E-15  3.533552405716E-15
  2.401912003557E-15  1.625602263206E-15  1.095369265811E-15  7.348064976714E-16
  4.907140028335E-16  3.262146794975E-16  2.158611099683E-16  1.421730056528E-16
  9.319817213589E-17  6.080237292985E-17  3.947585993542E-17  2.550441610984E-17
  1.639631080098E-17  1.048813223372E-17  6.674912535542E-18  4.226316680752E-18
  2.662077638497E-18  1.667993994646E-18  1.039575040234E-18  6.444317569887E-19
  3.973101680271E-19  0.000000000000E+00  0.000000000000E+00  0.000000000000E+00
  0.000000000000E+00
</data>
</radfunc>
</valence-charge>
<semilocal-potentials set="scalar_relativistic">
<slps n="1" l="s" rc="1.20595350732">
<radfunc>
<data npts="256">
 -1.331169597816E+01 -1.331103398313E+01 -1.330905513141E+01 -1.330575405491E+01
 -1.330116510623E+01 -1.329513230593E+01 -1.328744547685E+01 -1.327864592979E+01
 -1.326875490942E+01 -1.325722443841E+01 -1.324423258769E+01 -1.323011700335E+01
 -1.321306492278E+01 -1.319526385149E+01 -1.317427465447E+01 -1.315332277555E+01
 -1.312920742675E+01 -1.310635856087E+01 -1.308068207244E+01 -1.305183556596E+01
 -1.301943671557E+01 -1.299067484271E+01 -1.295912646898E+01 -1.292452882864E+01
 -1.288659538226E+01 -1.284501377036E+01 -1.279944359786E+01 -1.276242661607E+01
 -1.272278965094E+01 -1.268035310102E+01 -1.263492557825E+01 -1.258630318350E+01
 -1.253426874887E+01 -1.247859104961E+01 -1.241902399056E+01 -1.235530577408E+01
 -1.228715805922E+01 -1.221428512565E+01 -1.216292380180E+01 -1.210922559051E+01
 -1.205308898752E+01 -1.199440856247E+01 -1.193307488418E+01 -1.186897445961E+01
 -1.180198968924E+01 -1.173199884260E+01 -1.165887605776E+01 -1.158249136930E+01
 -1.150271076966E+01 -1.141939630952E+01 -1.133240624322E+01 -1.124159522624E+01
 -1.114681457200E+01 -1.104791257640E+01 -1.094473491888E+01 -1.083712514985E+01
 -1.072492527475E+01 -1.060797644615E+01 -1.048611977558E+01 -1.035919727786E+01
 -1.022705296087E+01 -1.008953407458E+01 -9.946492533296E+00 -9.797786525306E+00
 -9.643282324361E+00 -9.482856317141E+00 -9.316397260803E+00 -9.230874568740E+00
 -9.143808784386E+00 -9.055190637693E+00 -8.965012147678E+00 -8.873266723697E+00
 -8.779949271266E+00 -8.685056302612E+00 -8.588586052035E+00 -8.490538596273E+00
 -8.390915980025E+00 -8.289722346821E+00 -8.186964075479E+00 -8.082649922377E+00
 -7.976791169885E+00 -7.869401781244E+00 -7.760498562344E+00 -7.650101330821E+00
 -7.538233093014E+00 -7.424920229367E+00 -7.310192688932E+00 -7.194084193691E+00
 -7.076632453497E+00 -6.957879392471E+00 -6.837871387711E+00 -6.716659521230E+00
 -6.594299845976E+00 -6.470853666763E+00 -6.346387836814E+00 -6.220975070494E+00
 -6.094694272528E+00 -5.967630883735E+00 -5.839877242892E+00 -5.711532963823E+00
 -5.582705326260E+00 -5.453509678218E+00 -5.324069846874E+00 -5.194518553898E+00
 -5.064997830153E+00 -4.935659423409E+00 -4.806665191428E+00 -4.678187471261E+00
 -4.550409414059E+00 -4.423525272986E+00 -4.297740630034E+00 -4.173272545653E+00
 -4.050349613148E+00 -3.929211897754E+00 -3.810110738237E+00 -3.693308386770E+00
 -3.579077460814E+00 -3.467700178732E+00 -3.359467349091E+00 -3.254677082075E+00
 -3.153633190244E+00 -3.056643245306E+00 -2.964016257626E+00 -2.876059946253E+00
 -2.793077569405E+00 -2.715364289024E+00 -2.643203048249E+00 -2.576859948002E+00
 -2.516579118333E+00 -2.462577092141E+00 -2.415036703412E+00 -2.374100549344E+00
 -2.339864075637E+00 -2.312368366558E+00 -2.291592745838E+00 -2.277447320877E+00
 -2.269765630211E+00 -2.268297582006E+00 -2.272702898918E+00 -2.282545310857E+00
 -2.297287761407E+00 -2.316288914840E+00 -2.338801268305E+00 -2.363971187129E+00
 -2.390841189817E+00 -2.418354812791E+00 -2.445364382752E+00 -2.470642016310E+00
 -2.492894151652E+00 -2.510779895113E+00 -2.522933436188E+00 -2.527990748151E+00
 -2.524620748551E+00 -2.511559729323E+00 -2.487666062280E+00 -2.458165765675E+00
 -2.429018495971E+00 -2.400215429200E+00 -2.371754119130E+00 -2.343630277335E+00
 -2.315839928205E+00 -2.288379113889E+00 -2.261243926573E+00 -2.234430505404E+00
 -2.207935036093E+00 -2.181753750699E+00 -2.155882927486E+00 -2.130318890855E+00
 -2.105058011369E+00 -2.080096705830E+00 -2.055431437377E+00 -2.031058715482E+00
 -2.006975095718E+00 -1.983177179029E+00 -1.959661610179E+00 -1.936425074950E+00
 -1.913464295590E+00 -1.890776024070E+00 -1.868357032925E+00 -1.846204103975E+00
 -1.824314016175E+00 -1.802683535256E+00 -1.781309409543E+00 -1.760188377860E+00
 -1.739317195461E+00 -1.718692680714E+00 -1.698311777183E+00 -1.678171613300E+00
 -1.658269531092E+00 -1.638603057897E+00 -1.619169819457E+00 -1.599967427889E+00
 -1.580993394404E+00 -1.562245098227E+00 -1.543719809457E+00 -1.525414742229E+00
 -1.507327111984E+00 -1.489454178738E+00 -1.471793269735E+00 -1.454341784339E+00
 -1.437097188236E+00 -1.420057003567E+00 -1.403218799180E+00 -1.386580182824E+00
 -1.370138795635E+00 -1.353892308574E+00 -1.337838420269E+00 -1.321974855788E+00
 -1.306299365969E+00 -1.290809727056E+00 -1.275503740491E+00 -1.260379232768E+00
 -1.245434055304E+00 -1.230666084296E+00 -1.216073220566E+00 -1.201653389380E+00
 -1.187404540251E+00 -1.173324646724E+00 -1.159411706151E+00 -1.145663739452E+00
 -1.132078790873E+00 -1.118654927741E+00 -1.105390240209E+00 -1.092282841005E+00
 -1.079330865180E+00 -1.066532469855E+00 -1.053885833970E+00 -1.041389158029E+00
 -1.029040663858E+00 -1.016838594351E+00 -1.004781213227E+00 -9.928668047879E-01
 -9.810936736751E-01 -9.694601446326E-01 -9.579645622691E-01 -9.466052908248E-01
 -9.353807139398E-01 -9.242892344247E-01 -9.133292740344E-01 -9.024992732443E-01
 -8.917976910286E-01 -8.812230046417E-01 -8.707737094018E-01 -8.604483184771E-01
 -8.502453626742E-01 -8.401633902297E-01 -8.302009666033E-01 -8.203566742732E-01
 -8.106291125352E-01 -8.010168973018E-01 -7.915186609057E-01 -7.821330519035E-01
 -7.728587348831E-01 -7.636943902720E-01 -7.546387141484E-01 -7.456904180539E-01
</data>
</radfunc>
</slps>
<slps n="2" l="p" rc="1.00837687474">
<radfunc>
<data npts="256">
 -7.984211840517E+00 -7.985115721101E+00 -7.987813015160E+00 -7.992297417688E+00
 -7.998499900730E+00 -8.006598335182E+00 -8.016825850136E+00 -8.028408593641E+00
 -8.041268862739E+00 -8.056048802932E+00 -8.072429682957E+00 -8.089901906843E+00
 -8.110559190327E+00 -8.131602028425E+00 -8.155733753596E+00 -8.179094637677E+00
 -8.205090565426E+00 -8.228848825267E+00 -8.254545022556E+00 -8.282163324387E+00
 -8.311626661095E+00 -8.336423131455E+00 -8.362174306901E+00 -8.388701790968E+00
 -8.415766127238E+00 -8.443055818119E+00 -8.470175375533E+00 -8.490111319026E+00
 -8.509429393976E+00 -8.527844179324E+00 -8.545029406147E+00 -8.560615200939E+00
 -8.574185719194E+00 -8.585277356568E+00 -8.593377762112E+00 -8.597925917816E+00
 -8.598313589219E+00 -8.593888491056E+00 -8.587924772982E+00 -8.579302717079E+00
 -8.567804640457E+00 -8.553209616646E+00 -8.535295387371E+00 -8.513840596516E+00
 -8.488627362953E+00 -8.459444203932E+00 -8.426089313952E+00 -8.388374195205E+00
 -8.346127624670E+00 -8.299199929158E+00 -8.247467523204E+00 -8.190837645147E+00
 -8.129253204162E+00 -8.062697625378E+00 -7.991199551733E+00 -7.914837230449E+00
 -7.833742379755E+00 -7.748103298881E+00 -7.658166953273E+00 -7.564239739666E+00
 -7.466686614947E+00 -7.365928262512E+00 -7.262435974098E+00 -7.156723949054E+00
 -7.049338761815E+00 -6.940845827748E+00 -6.831812812571E+00 -6.777267031680E+00
 -6.722790085925E+00 -6.668444424381E+00 -6.614288517887E+00 -6.560376060652E+00
 -6.506755158874E+00 -6.453467515912E+00 -6.400547624749E+00 -6.348021979903E+00
 -6.295908322192E+00 -6.244214931030E+00 -6.192939980147E+00 -6.142070973661E+00
 -6.091584280399E+00 -6.041444785032E+00 -5.991605675163E+00 -5.942008383587E+00
 -5.892582704881E+00 -5.843247104863E+00 -5.793909240456E+00 -5.744466705940E+00
 -5.694808019491E+00 -5.644813861143E+00 -5.594358569899E+00 -5.543311903628E+00
 -5.491541060495E+00 -5.438912955063E+00 -5.385296735827E+00 -5.330566523835E+00
 -5.274604344235E+00 -5.217303214155E+00 -5.158570341427E+00 -5.098330379357E+00
 -5.036528673339E+00 -4.973134425737E+00 -4.908143696567E+00 -4.841582149295E+00
 -4.773507444089E+00 -4.704011175486E+00 -4.633220248304E+00 -4.561297585125E+00
 -4.488442061610E+00 -4.414887572628E+00 -4.340901143418E+00 -4.266780016177E+00
 -4.192847663878E+00 -4.119448710179E+00 -4.046942766763E+00 -3.975697237299E+00
 -3.906079179754E+00 -3.838446365098E+00 -3.773137719316E+00 -3.710463385175E+00
 -3.650694688502E+00 -3.594054338179E+00 -3.540707226946E+00 -3.490752228595E+00
 -3.444215403064E+00 -3.401045021614E+00 -3.361108806958E+00 -3.324193745925E+00
 -3.290008773432E+00 -3.258190545719E+00 -3.228312418305E+00 -3.199896621510E+00
 -3.172429486443E+00 -3.145379420862E+00 -3.118217172592E+00 -3.090437754890E+00
 -3.061583250540E+00 -3.031265568314E+00 -2.999188106318E+00 -2.965165191949E+00
 -2.930358397392E+00 -2.896099077632E+00 -2.862337302929E+00 -2.829058772722E+00
 -2.796245698278E+00 -2.763876784412E+00 -2.731927318216E+00 -2.700369390636E+00
 -2.669172274452E+00 -2.638302975610E+00 -2.607726963187E+00 -2.577409066924E+00
 -2.547314512020E+00 -2.517408725934E+00 -2.487672787718E+00 -2.458165765675E+00
 -2.429018495971E+00 -2.400215429200E+00 -2.371754119130E+00 -2.343630277335E+00
 -2.315839928205E+00 -2.288379113889E+00 -2.261243926573E+00 -2.234430505404E+00
 -2.207935036093E+00 -2.181753750699E+00 -2.155882927486E+00 -2.130318890855E+00
 -2.105058011369E+00 -2.080096705830E+00 -2.055431437377E+00 -2.031058715482E+00
 -2.006975095718E+00 -1.983177179029E+00 -1.959661610179E+00 -1.936425074950E+00
 -1.913464295590E+00 -1.890776024070E+00 -1.868357032925E+00 -1.846204103975E+00
 -1.824314016175E+00 -1.802683535256E+00 -1.781309409543E+00 -1.760188377860E+00
 -1.739317195461E+00 -1.718692680714E+00 -1.698311777183E+00 -1.678171613300E+00
 -1.658269531092E+00 -1.638603057897E+00 -1.619169819457E+00 -1.599967427889E+00
 -1.580993394404E+00 -1.562245098227E+00 -1.543719809457E+00 -1.525414742229E+00
 -1.507327111984E+00 -1.489454178738E+00 -1.471793269735E+00 -1.454341784339E+00
 -1.437097188236E+00 -1.420057003567E+00 -1.403218799180E+00 -1.386580182824E+00