<?xml version="1.0" encoding="UTF-8" ?>
<psml version="1.1" energy_unit="hartree" length_unit="bohr"
 uuid="aa938c80-4319-11e8-767b-47728ffbe8af"
 xmlns="http://esl.cecam.org/PSML/ns/1.1">
<provenance creator="ONCVPSP-3.3.0+psml-3.3.0-73 (fully-relativistic)"
 date="2018-04-18">
<annotation action="semilocal-pseudopotential-generation"
 action-cont="projectors-generation" />
<input-file name="oncvpsp-input">
<![CDATA[# atsym z nc nv iexc psfile
Li 3 0 2 4 both
# n l f
1 0 2.0
2 0 1.0
# lmax
1
# l rc ep ncon nbas qcut
0 1.4 0.0 4 8 8.6
1 1.1 0.0 4 8 9.0
# lloc lpopt rc5 dvloc0
4 5 1.1 0.0
# l nproj debl
0 2 1.0
1 2 1.0
# icmod fcfact
0 0.25
# epsh1 epsh2 depsh
-12.0 12.0 0.02
# rlmax drl
4.0 0.01
 0
]]>
</input-file>
</provenance>
<pseudo-atom-spec atomic-label="Li" atomic-number="3" z-pseudo="3"
 flavor="Hamann&apos;s oncvpsp" relativity="dirac" spin-dft="no"
 core-corrections="no">
<annotation pseudo-energy="-7.13436029137" />
<exchange-correlation>
<annotation oncvpsp-xc-code="4" oncvpsp-xc-type="GGA -- Perdew-Burke-Ernzerhof" />
<libxc-info number-of-functionals="2">
<functional name="Perdew, Burke &amp; Ernzerhof (GGA)" type="exchange" id="101" />
<functional name="Perdew, Burke &amp; Ernzerhof (GGA)" type="correlation"
 id="130" />
</libxc-info>
</exchange-correlation>
<valence-configuration total-valence-charge="3">
<shell n="1" l="s" occupation="2" />
<shell n="2" l="s" occupation="1" />
</valence-configuration>
</pseudo-atom-spec>
<grid npts="457">
<annotation type="sampled from oncvpsp log grid"
 recipe="r(i:1..N) = r1*exp(a*(i-1)) + r=0; resampled"
 recipe-cont="r1: scale; a: step" scale="0.166666666667E-03"
 step="0.119285708653E-01" delta="0.500000000000E-02" rmax="44.2430787916" />
<grid-data>
  0.000000000000E+00  5.052139405559E-03  1.009125198494E-02  1.513848713291E-02
  2.015648390690E-02  2.528392618201E-02  3.060079530245E-02  3.573381431355E-02
  4.074412671733E-02  4.590607257001E-02  5.110869023733E-02  5.622621532664E-02
  6.185615939828E-02  6.724291609153E-02  7.309877962804E-02  7.852233426508E-02
  8.434828884711E-02  8.953211401853E-02  9.503452352372E-02  1.008750967224E-01
  1.070746162705E-01  1.123074526400E-01  1.177960226038E-01  1.235528241010E-01
  1.295909658570E-01  1.359241972326E-01  1.425669395327E-01  1.477611846294E-01
  1.531446754392E-01  1.587243068888E-01  1.645072251130E-01  1.705008366068E-01
  1.767128177115E-01  1.831511244461E-01  1.898240026970E-01  1.967399987792E-01
  2.039079703814E-01  2.113370979113E-01  2.164396208033E-01  2.216653390080E-01
  2.270172269530E-01  2.324983308805E-01  2.381117705813E-01  2.438607411702E-01
  2.497485149050E-01  2.557784430489E-01  2.619539577779E-01  2.682785741345E-01
  2.747558920284E-01  2.813895982855E-01  2.881834687465E-01  2.951413704159E-01
  3.022672636632E-01  3.095652044771E-01  3.170393467740E-01  3.246939447625E-01
  3.325333553649E-01  3.405620406968E-01  3.487845706074E-01  3.572056252801E-01
  3.658299978969E-01  3.746625973661E-01  3.837084511169E-01  3.929727079607E-01
  4.024606410217E-01  4.121776507385E-01  4.221292679380E-01  4.271948191532E-01
  4.323211569831E-01  4.375090108669E-01  4.427591189973E-01  4.480722284252E-01
  4.534490951663E-01  4.588904843083E-01  4.643971701200E-01  4.699699361615E-01
  4.756095753954E-01  4.813168903001E-01  4.870926929837E-01  4.929378052995E-01
  4.988530589631E-01  5.048392956707E-01  5.108973672188E-01  5.170281356254E-01
  5.232324732529E-01  5.295112629319E-01  5.358653980871E-01  5.422957828641E-01
  5.488033322585E-01  5.553889722456E-01  5.620536399126E-01  5.687982835915E-01
  5.756238629946E-01  5.825313493505E-01  5.895217255428E-01  5.965959862493E-01
  6.037551380843E-01  6.110001997413E-01  6.183322021382E-01  6.257521885638E-01
  6.332612148266E-01  6.408603494045E-01  6.485506735974E-01  6.563332816805E-01
  6.642092810607E-01  6.721797924334E-01  6.802459499426E-01  6.884089013419E-01
  6.966698081580E-01  7.050298458559E-01  7.134902040062E-01  7.220520864543E-01
  7.307167114917E-01  7.394853120296E-01  7.483591357740E-01  7.573394454033E-01
  7.664275187481E-01  7.756246489731E-01  7.849321447608E-01  7.943513304979E-01
  8.038835464639E-01  8.135301490214E-01  8.232925108097E-01  8.331720209394E-01
  8.431700851907E-01  8.532881262130E-01  8.635275837275E-01  8.738899147323E-01
  8.843765937091E-01  8.949891128336E-01  9.057289821876E-01  9.165977299738E-01
  9.275969027335E-01  9.387280655663E-01  9.499928023531E-01  9.613927159813E-01
  9.729294285731E-01  9.846045817160E-01  9.964198366966E-01  1.008376874737E+00
  1.020477397234E+00  1.032723126001E+00  1.045115803513E+00  1.057657193155E+00
  1.070349079473E+00  1.083193268426E+00  1.096191587647E+00  1.109345886699E+00
  1.122658037340E+00  1.136129933788E+00  1.149763492993E+00  1.163560654909E+00
  1.177523382768E+00  1.191653663361E+00  1.205953507321E+00  1.220424949409E+00
  1.235070048802E+00  1.249890889388E+00  1.264889580060E+00  1.280068255021E+00
  1.295429074081E+00  1.310974222970E+00  1.326705913646E+00  1.342626384610E+00
  1.358737901225E+00  1.375042756040E+00  1.391543269112E+00  1.408241788342E+00
  1.425140689802E+00  1.442242378079E+00  1.459549286616E+00  1.477063878056E+00
  1.494788644592E+00  1.512726108328E+00  1.530878821627E+00  1.549249367487E+00
  1.567840359897E+00  1.586654444216E+00  1.605694297546E+00  1.624962629117E+00
  1.644462180666E+00  1.664195726834E+00  1.684166075556E+00  1.704376068463E+00
  1.724828581284E+00  1.745526524260E+00  1.766472842551E+00  1.787670516662E+00
  1.809122562861E+00  1.830832033616E+00  1.852802018019E+00  1.875035642235E+00
  1.897536069942E+00  1.920306502782E+00  1.943350180815E+00  1.966670382985E+00
  1.990270427581E+00  2.014153672711E+00  2.038323516784E+00  2.062783398985E+00
  2.087536799773E+00  2.112587241371E+00  2.137938288267E+00  2.163593547726E+00
  2.189556670299E+00  2.215831350343E+00  2.242421326547E+00  2.269330382465E+00
  2.296562347055E+00  2.324121095219E+00  2.352010548362E+00  2.380234674942E+00
  2.408797491042E+00  2.437703060934E+00  2.466955497665E+00  2.496558963637E+00
  2.526517671201E+00  2.556835883255E+00  2.587517913855E+00  2.618568128821E+00
  2.649990946367E+00  2.681790837723E+00  2.713972327776E+00  2.746539995709E+00
  2.779498475658E+00  2.812852457365E+00  2.846606686854E+00  2.880765967096E+00
  2.915335158701E+00  2.950319180606E+00  2.985723010773E+00  3.021551686902E+00
  3.057810307145E+00  3.094504030831E+00  3.131638079201E+00  3.169217736151E+00
  3.207248348985E+00  3.245735329173E+00  3.284684153123E+00  3.324100362960E+00
  3.363989567316E+00  3.404357442124E+00  3.445209731429E+00  3.486552248206E+00
  3.528390875185E+00  3.570731565687E+00  3.613580344475E+00  3.656943308609E+00
  3.700826628312E+00  3.745236547852E+00  3.790179386426E+00  3.835661539063E+00
  3.881689477532E+00  3.928269751262E+00  3.975408988278E+00  4.023113896137E+00
  4.071391262890E+00  4.120247958045E+00  4.169690933542E+00  4.219727224744E+00
  4.270363951441E+00  4.321608318858E+00  4.373467618685E+00  4.425949230109E+00
  4.479060620870E+00  4.532809348321E+00  4.587203060501E+00  4.642249497227E+00
  4.697956491193E+00  4.754331969088E+00  4.811383952717E+00  4.869120560149E+00
  4.927550006871E+00  4.986680606954E+00  5.046520774237E+00  5.107079023528E+00
  5.168363971810E+00  5.230384339472E+00  5.293148951546E+00  5.356666738964E+00
  5.420946739832E+00  5.485998100710E+00  5.551830077918E+00  5.618452038853E+00
  5.685873463319E+00  5.754103944879E+00  5.823153192218E+00  5.893031030524E+00
  5.963747402891E+00  6.035312371725E+00  6.107736120186E+00  6.181028953628E+00
  6.255201301072E+00  6.330263716685E+00  6.406226881285E+00  6.483101603860E+00
  6.560898823107E+00  6.639629608984E+00  6.719305164292E+00  6.799936826263E+00
  6.881536068178E+00  6.964114500997E+00  7.047683875009E+00  7.132256081509E+00
  7.217843154487E+00  7.304457272341E+00  7.392110759609E+00  7.480816088724E+00
  7.570585881789E+00  7.661432912370E+00  7.753370107319E+00  7.846410548606E+00
  7.940567475190E+00  8.035854284892E+00  8.132284536311E+00  8.229871950746E+00
  8.328630414155E+00  8.428573979125E+00  8.529716866875E+00  8.632073469277E+00
  8.735658350908E+00  8.840486251119E+00  8.946572086133E+00  9.053930951166E+00
  9.162578122580E+00  9.272529060051E+00  9.383799408772E+00  9.496405001677E+00
  9.610361861697E+00  9.725686204038E+00  9.842394438486E+00  9.960503171748E+00
  1.008002920981E+01  1.020098956033E+01  1.032340143505E+01  1.044728225227E+01
  1.057264963930E+01  1.069952143497E+01  1.082791569219E+01  1.095785068050E+01
  1.108934488866E+01  1.122241702733E+01  1.135708603165E+01  1.149337106403E+01
  1.163129151680E+01  1.177086701500E+01  1.191211741918E+01  1.205506282821E+01
  1.219972358215E+01  1.234612026514E+01  1.249427370832E+01  1.264420499282E+01
  1.279593545273E+01  1.294948667817E+01  1.310488051830E+01  1.326213908452E+01
  1.342128475354E+01  1.358234017058E+01  1.374532825263E+01  1.391027219166E+01
  1.407719545796E+01  1.424612180345E+01  1.441707526510E+01  1.459008016828E+01
  1.476516113030E+01  1.494234306386E+01  1.512165118063E+01  1.530311099479E+01
  1.548674832673E+01  1.567258930665E+01  1.586066037833E+01  1.605098830287E+01
  1.624360016251E+01  1.643852336446E+01  1.663578564483E+01  1.683541507257E+01
  1.703744005344E+01  1.724188933408E+01  1.744879200609E+01  1.765817751016E+01
  1.787007564028E+01  1.808451654797E+01  1.830153074654E+01  1.852114911550E+01
  1.874340290489E+01  1.896832373975E+01  1.919594362462E+01  1.942629494812E+01
  1.965941048750E+01  1.989532341335E+01  2.013406729431E+01  2.037567610184E+01
  2.062018421506E+01  2.086762642564E+01  2.111803794275E+01  2.137145439806E+01
  2.162791185084E+01  2.188744679305E+01  2.215009615457E+01  2.241589730842E+01
  2.268488807612E+01  2.295710673303E+01  2.323259201383E+01  2.351138311800E+01
  2.379351971541E+01  2.407904195200E+01  2.436799045542E+01  2.466040634089E+01
  2.495633121698E+01  2.525580719158E+01  2.555887687788E+01  2.586558340041E+01
  2.617597040122E+01  2.649008204603E+01  2.680796303059E+01  2.712965858695E+01
  2.745521449000E+01  2.778467706388E+01  2.811809318864E+01  2.845551030691E+01
  2.879697643059E+01  2.914254014776E+01  2.949225062953E+01  2.984615763708E+01
  3.020431152873E+01  3.056676326707E+01  3.093356442628E+01  3.130476719939E+01
  3.168042440579E+01  3.206058949866E+01  3.244531657264E+01  3.283466037151E+01
  3.322867629597E+01  3.362742041152E+01  3.403094945646E+01  3.443932084994E+01
  3.485259270014E+01  3.527082381254E+01  3.569407369829E+01  3.612240258267E+01
  3.655587141366E+01  3.699454187062E+01  3.743847637307E+01  3.788773808955E+01
  3.834239094662E+01  3.880249963798E+01  3.926812963364E+01  3.973934718924E+01
  4.021621935551E+01  4.069881398778E+01  4.118719975563E+01  4.168144615270E+01
  4.218162350653E+01  4.268780298861E+01  4.320005662447E+01  4.371845730397E+01
  4.424307879162E+01
</grid-data>
</grid>
<valence-charge total-charge="3" is-unscreening-charge="yes"
 rescaled-to-z-pseudo="no">
<radfunc>
<data npts="457">
  3.530375875327E+01  3.529974704941E+01  3.528775566560E+01  3.526775442483E+01
  3.523995532454E+01  3.520341924375E+01  3.515688209935E+01  3.510363103626E+01
  3.504380434081E+01  3.497410167452E+01  3.489561836267E+01  3.481041277715E+01
  3.470757651669E+01  3.460033772491E+01  3.447404831881E+01  3.434815745612E+01
  3.420348194324E+01  3.406663285724E+01  3.391312295976E+01  3.374101982809E+01
  3.354819258155E+01  3.337744256292E+01  3.319063190274E+01  3.298636317574E+01
  3.276314099859E+01  3.251937029406E+01  3.225335584129E+01  3.203817188096E+01
  3.180867609643E+01  3.156404698276E+01  3.130343581701E+01  3.102596909212E+01
  3.073075165339E+01  3.041687063492E+01  3.008340030094E+01  2.972940790290E+01
  2.935396066873E+01  2.895613404393E+01  2.867803447618E+01  2.838932291478E+01
  2.808974466334E+01  2.777905412968E+01  2.745701676036E+01  2.712341113221E+01
  2.677803120419E+01  2.642068873186E+01  2.605121584547E+01  2.566946779014E+01
  2.527532582531E+01  2.486870027728E+01  2.444953373634E+01  2.401780438648E+01
  2.357352945170E+01  2.311676873921E+01  2.264762825481E+01  2.216626386080E+01
  2.167288494138E+01  2.116775803447E+01  2.065121038274E+01  2.012363335016E+01
  1.958548564381E+01  1.903729627375E+01  1.847966717762E+01  1.791327542994E+01
  1.733887495062E+01  1.675729762248E+01  1.616945372332E+01  1.587348763911E+01
  1.557633157634E+01  1.527812106875E+01  1.497899632191E+01  1.467910212005E+01
  1.437858771572E+01  1.407760670141E+01  1.377631686264E+01  1.347488001194E+01
  1.317346180333E+01  1.287223152667E+01  1.257136188179E+01  1.227102873197E+01
  1.197141083666E+01  1.167268956333E+01  1.137504857862E+01  1.107867351869E+01
  1.078375163938E+01  1.049047144636E+01  1.019902230585E+01  9.909594036800E+00
  9.622376485195E+00  9.337559081592E+00  9.055330383124E+00  8.775877601277E+00
  8.499386117014E+00  8.226038984952E+00  7.956016428469E+00  7.689495327827E+00
  7.426648703510E+00  7.167645197182E+00  6.912648552808E+00  6.661817100603E+00
  6.415303246652E+00  6.173252971105E+00  5.935805337980E+00  5.703092019682E+00
  5.475236839387E+00  5.252355334479E+00  5.034554344229E+00  4.821931624879E+00
  4.614575495233E+00  4.412564515772E+00  4.215967204180E+00  4.024841790024E+00
  3.839236011120E+00  3.659186953893E+00  3.484720939803E+00  3.315853459562E+00
  3.152589156592E+00  2.994921860787E+00  2.842834673257E+00  2.696300102351E+00
  2.555280250790E+00  2.419727053348E+00  2.289582564024E+00  2.164779291216E+00
  2.045240578975E+00  1.930881031921E+00  1.821606981037E+00  1.717316987108E+00
  1.617902378213E+00  1.523247817328E+00  1.433231895810E+00  1.347727748261E+00
  1.266603684082E+00  1.189723830878E+00  1.116948784787E+00  1.048136262791E+00
  9.831417520997E-01  9.218191518147E-01  8.640214022406E-01  8.096010974472E-01
  7.584110769723E-01  7.103049928902E-01  6.651378488606E-01  6.227665081879E-01
  5.830501683755E-01  5.458508001257E-01  5.110335492111E-01  4.784671001188E-01
  4.480240008234E-01  4.195809484789E-01  3.930190362112E-01  3.682239615408E-01
  3.450861972586E-01  3.235011258059E-01  3.033691383744E-01  2.845957000340E-01
  2.670913822260E-01  2.507718639286E-01  2.355579027143E-01  2.213752768038E-01
  2.081546990776E-01  1.958317038717E-01  1.843465072688E-01  1.736438415392E-01
  1.636727643968E-01  1.543864438547E-01  1.457419196947E-01  1.376998429336E-01
  1.302240883929E-01  1.232809499539E-01  1.168381670805E-01  1.108649053135E-01
  1.053317213368E-01  1.002105380327E-01  9.547461943986E-02  9.109854653651E-02
  8.705819365102E-02  8.333070513262E-02  7.989447155055E-02  7.672910421256E-02
  7.381540622141E-02  7.113533766727E-02  6.867197199473E-02  6.640944029192E-02
  6.433286056635E-02  6.242825046708E-02  6.068242487740E-02  5.908288449322E-02
  5.761770713965E-02  5.627545792067E-02  5.504513408299E-02  5.391615350576E-02
  5.287838353069E-02  5.192219500691E-02  5.103852102112E-02  5.021890277325E-02
  4.945551327231E-02  4.874115792935E-02  4.806925648248E-02  4.743381255551E-02
  4.682937667468E-02  4.625100709235E-02  4.569423119489E-02  4.515500901021E-02
  4.462969946937E-02  4.411502955844E-02  4.360806622265E-02  4.310619076584E-02
  4.260707545691E-02  4.210866206865E-02  4.160914210679E-02  4.110693852410E-02
  4.060068874962E-02  4.008922889277E-02  3.957157900692E-02  3.904692931612E-02
  3.851462732360E-02  3.797416573238E-02  3.742517111694E-02  3.686739329206E-02
  3.630069533002E-02  3.572504418210E-02  3.514050186366E-02  3.454721716563E-02
  3.394541785759E-02  3.333540335040E-02  3.271753778870E-02  3.209224354553E-02
  3.145999509354E-02  3.082131322911E-02  3.017675962722E-02  2.952693170691E-02
  2.887245778841E-02  2.821399252429E-02  2.755221258856E-02  2.688781260846E-02
  2.622150132473E-02  2.555399796708E-02  2.488602883250E-02  2.421832405434E-02
  2.355161455122E-02  2.288662914508E-02  2.222409183834E-02  2.156471924078E-02
  2.090921813710E-02  2.025828318705E-02  1.961259475041E-02  1.897281683007E-02
  1.833959512718E-02  1.771355520355E-02  1.709530074733E-02  1.648541193941E-02
  1.588444391919E-02  1.529292534990E-02  1.471135708474E-02  1.414021093696E-02
  1.357992855779E-02  1.303092042767E-02  1.249356496689E-02  1.196820777260E-02
  1.145516098938E-02  1.095470282049E-02  1.046707718664E-02  9.992493538259E-03
  9.531126826064E-03  9.083117633290E-03  8.648572471230E-03  8.227564237720E-03
  7.820132836219E-03  7.426285950959E-03  7.045999971619E-03  6.679221058995E-03
  6.325866341348E-03  5.985825229544E-03  5.658960837825E-03  5.345111496904E-03
  5.044092340092E-03  4.755696955602E-03  4.479699081531E-03  4.215854332029E-03
  3.963901939065E-03  3.723566495522E-03  3.494559686136E-03  3.276581993765E-03
  3.069324369515E-03  2.872469856404E-03  2.685695157465E-03  2.508672140378E-03
  2.341069271999E-03  2.182552977320E-03  2.032788918594E-03  1.891443191480E-03
  1.758183436103E-03  1.632679861931E-03  1.514606186264E-03  1.403640486953E-03
  1.299465970721E-03  1.201771659071E-03  1.110252994384E-03  1.024612369233E-03
  9.445595823770E-04  8.698122251997E-04  8.000960025986E-04  7.351449925175E-04
  6.747018483336E-04  6.185179486902E-04  5.663534985066E-04  5.179775861565E-04
  4.731682004519E-04  4.317122114492E-04  3.934053190317E-04  3.580519727707E-04
  3.254652664080E-04  2.954668100679E-04  2.678865830464E-04  2.425627697659E-04
  2.193415812373E-04  1.980770641262E-04  1.786308992960E-04  1.608721914893E-04
  1.446772516203E-04  1.299293729832E-04  1.165186025379E-04  1.043415083093E-04
  9.330094383835E-05  8.330581053772E-05  7.427081874377E-05  6.611624820456E-05
  5.876770870699E-05  5.215590151694E-05  4.621638228414E-05  4.088932604470E-05
  3.611929493669E-05  3.185500922646E-05  2.804912222334E-05  2.465799963667E-05
  2.164150390230E-05  1.896278397300E-05  1.658807103142E-05  1.448648054295E-05
  1.262982102123E-05  1.099240983103E-05  9.550896302582E-06  8.284092379101E-06
  7.172810966305E-06  6.199712099431E-06  5.349156991183E-06  4.607069973392E-06
  3.960808296924E-06  3.399039709017E-06  2.911627685265E-06  2.489524155322E-06
  2.124669527279E-06  1.809899785793E-06  1.538860413501E-06  1.305926863995E-06
  1.106131297618E-06  9.350952783642E-07  7.889681211150E-07  6.643705729439E-07
  5.583435101070E-07  4.683013332266E-07  3.919897467794E-07  3.274476149798E-07
  2.729725941846E-07  2.270902517092E-07  1.885263921326E-07  1.561823244879E-07
  1.291128169128E-07  1.065064991140E-07  8.766848716211E-08  7.200501946668E-08
  5.900990710439E-08  4.825261583799E-08  3.936781102494E-08  3.204621007095E-08
  2.602660003779E-08  2.108889039907E-08  1.704808269608E-08  1.374904994196E-08
  1.106202903127E-08  8.878739123109E-09  7.109047978253E-09  5.678116552220E-09
  4.523959794028E-09  3.595368595541E-09  2.850144206650E-09  2.253602207534E-09
  1.777308344423E-09  1.398013224703E-09  1.096757067149E-09  8.581194496755E-10
  6.695923265084E-10  5.210575341812E-10  4.043526053930E-10  3.129109941389E-10
  2.414648155063E-10  1.857999482296E-10  1.425548646288E-10  1.090558660760E-10
  8.318253577214E-11  6.325819558262E-11  4.796098921007E-11  3.625192752845E-11
  2.731683912763E-11  2.051968406022E-11  1.536512393653E-11  1.146860795392E-11
  8.532541938766E-12  6.327364598025E-12  4.676569415153E-12  3.444888499789E-12
  2.529001858912E-12  1.850256866843E-12  1.348982353268E-12  9.800632761850E-13
  7.095084429087E-13  5.117977662396E-13  3.678392717824E-13  2.634013363788E-13
  1.879139686457E-13  1.335556176617E-13  9.456007489285E-14  6.669239363089E-14
  4.685411067839E-14  3.278700781964E-14  2.285167814861E-14  1.586265661542E-14
  1.096615241921E-14  7.549738710837E-15  5.175917514490E-15  3.533448608179E-15
  2.401840558687E-15  1.625553300717E-15  1.095335858478E-15  7.347838051271E-16
  4.906986579175E-16  3.262043503997E-16  2.158541892188E-16  1.421683902167E-16
  9.319510864252E-17  6.080034925302E-17  3.947452960208E-17  2.550354584847E-17
  1.639574432285E-17  1.048776534435E-17  6.674676117920E-18  4.226165118534E-18
  2.661980979633E-18  1.667932674252E-18  1.039536345376E-18  6.444074708288E-19
  3.972950082211E-19  0.000000000000E+00  0.000000000000E+00  0.000000000000E+00
  0.000000000000E+00
</data>
</radfunc>
</valence-charge>
<semilocal-potentials set="scalar_relativistic">
<slps n="1" l="s" rc="1.40824178834">
<radfunc>
<data npts="256">
 -1.167784954097E+01 -1.167741619846E+01 -1.167612079881E+01 -1.167395966061E+01
 -1.167095500485E+01 -1.166700431191E+01 -1.166196937101E+01 -1.165620413318E+01
 -1.164972196808E+01 -1.164216299281E+01 -1.163364299049E+01 -1.162438254760E+01
 -1.161319092584E+01 -1.160150242403E+01 -1.158771386509E+01 -1.157394292992E+01
 -1.155808464748E+01 -1.154305160276E+01 -1.152614982202E+01 -1.150715142827E+01
 -1.148580176547E+01 -1.146683910081E+01 -1.144602963296E+01 -1.142319810205E+01
 -1.139815337376E+01 -1.137068710768E+01 -1.134057232439E+01 -1.131610027007E+01
 -1.128988759342E+01 -1.126181471675E+01 -1.123175429349E+01 -1.119957074111E+01
 -1.116511974838E+01 -1.112824775604E+01 -1.108879141031E+01 -1.104657698871E+01
 -1.100141979830E+01 -1.095312354715E+01 -1.091907966322E+01 -1.088348326576E+01
 -1.084626675522E+01 -1.080735979501E+01 -1.076668921825E+01 -1.072417893415E+01
 -1.067974983485E+01 -1.063331970321E+01 -1.058480312269E+01 -1.053411139032E+01
 -1.048115243401E+01 -1.042583073575E+01 -1.036804726238E+01 -1.030769940594E+01
 -1.024468093585E+01 -1.017888196562E+01 -1.011018893698E+01 -1.003848462481E+01
 -9.963648166829E+00 -9.885555122066E+00 -9.804077563224E+00 -9.719084208128E+00
 -9.630440596310E+00 -9.538009317379E+00 -9.441650298476E+00 -9.341221158879E+00
 -9.236577640521E+00 -9.127574123975E+00 -9.014064240150E+00 -8.955573639616E+00
 -8.895901588753E+00 -8.835029919919E+00 -8.772940575177E+00 -8.709615639821E+00
 -8.645037378215E+00 -8.579188272125E+00 -8.512051061594E+00 -8.443608788513E+00
 -8.373844842994E+00 -8.302743012661E+00 -8.230287535008E+00 -8.156463152927E+00
 -8.081255173617E+00 -8.004649530949E+00 -7.926632851566E+00 -7.847192524844E+00
 -7.766316777003E+00 -7.683994749611E+00 -7.600216582839E+00 -7.514973503801E+00
 -7.428257920487E+00 -7.340063521815E+00 -7.250385384424E+00 -7.159220087031E+00
 -7.066565833217E+00 -6.972422583762E+00 -6.876792199734E+00 -6.779678597826E+00
 -6.681087919583E+00 -6.581028716378E+00 -6.479512152272E+00 -6.376552227012E+00
 -6.272166021678E+00 -6.166373969589E+00 -6.059200155182E+00 -5.950672643586E+00
 -5.840823843490E+00 -5.729690905752E+00 -5.617316159749E+00 -5.503747589018E+00
 -5.389039346974E+00 -5.273252312630E+00 -5.156454685100E+00 -5.038722614411E+00
 -4.920140864656E+00 -4.800803503878E+00 -4.680814613327E+00 -4.560289006871E+00
 -4.439352949448E+00 -4.318144861559E+00 -4.196815994964E+00 -4.075531063005E+00
 -3.954468807399E+00 -3.833822481932E+00 -3.713800232225E+00 -3.594625349807E+00
 -3.476536377834E+00 -3.359787045247E+00 -3.244646005693E+00 -3.131396357248E+00
 -3.020334918862E+00 -2.911771239399E+00 -2.806026315316E+00 -2.703430993286E+00
 -2.604324034630E+00 -2.509049819266E+00 -2.417955668175E+00 -2.331388765304E+00
 -2.249692662483E+00 -2.173203354647E+00 -2.102244917486E+00 -2.037124705990E+00
 -1.978128120192E+00 -1.925512954046E+00 -1.879503354831E+00 -1.840283433669E+00
 -1.807990582734E+00 -1.782708571174E+00 -1.764460509404E+00 -1.753201789843E+00
 -1.748813130807E+00 -1.751093868634E+00 -1.759755660378E+00 -1.774416775139E+00
 -1.794597165885E+00 -1.819714524940E+00 -1.849081534833E+00 -1.881904532447E+00
 -1.917283808637E+00 -1.954215768904E+00 -1.991597184907E+00 -2.028231773973E+00
 -2.062839357380E+00 -2.094067872098E+00 -2.120508549662E+00 -2.140714635469E+00
 -2.153224108435E+00 -2.156586980546E+00 -2.149396489891E+00 -2.130343508025E+00
 -2.105057191981E+00 -2.080097208512E+00 -2.055431752098E+00 -2.031059072370E+00
 -2.006975475618E+00 -1.983177589040E+00 -1.959662054597E+00 -1.936425556866E+00
 -1.913464816187E+00 -1.890776581533E+00 -1.868357621249E+00 -1.846204711826E+00
 -1.824314626079E+00 -1.802684123512E+00 -1.781309947312E+00 -1.760188833831E+00
 -1.739317540220E+00 -1.718692892422E+00 -1.698311847387E+00 -1.678171551019E+00
 -1.658269363147E+00 -1.638602824456E+00 -1.619169565675E+00 -1.599967194493E+00
 -1.580993210600E+00 -1.562244978953E+00 -1.543719756800E+00 -1.525414749295E+00
 -1.507327167240E+00 -1.489454269516E+00 -1.471793384449E+00 -1.454341913526E+00
 -1.437097324787E+00 -1.420057142504E+00 -1.403218937248E+00 -1.386580318060E+00
 -1.370138926992E+00 -1.353892435620E+00 -1.337838542967E+00 -1.321974974344E+00
 -1.306299480725E+00 -1.290809838427E+00 -1.275503848919E+00 -1.260379338700E+00
 -1.245434159175E+00 -1.230666186523E+00 -1.216073321542E+00 -1.201653489473E+00
 -1.187404639803E+00 -1.173324746053E+00 -1.159411805549E+00 -1.145663839186E+00
 -1.132078891188E+00 -1.118655028857E+00 -1.105390342324E+00 -1.092282944297E+00
 -1.079330969807E+00 -1.066532575957E+00 -1.053885941668E+00 -1.041389267431E+00
 -1.029040775054E+00 -1.016838707421E+00 -1.004781328239E+00 -9.928669217997E-01
 -9.810937927364E-01 -9.694602657855E-01 -9.579646855497E-01 -9.466054162641E-01
 -9.353808415640E-01 -9.242893642563E-01 -9.133294060923E-01 -9.024994075439E-01
 -8.917978275818E-01 -8.812231434567E-01 -8.707738504821E-01 -8.604484618214E-01
 -8.502455082751E-01 -8.401635380727E-01 -8.302011166654E-01 -8.203568265220E-01
 -8.106292669268E-01 -8.010170537802E-01 -7.915188194004E-01 -7.821332123287E-01
 -7.728588971364E-01 -7.636945542331E-01 -7.546388796782E-01 -7.456905849940E-01
</data>
</radfunc>
</slps>
<slps n="2" l="p" rc="1.10934588670">
<radfunc>
<data npts="256">
 -8.213421279915E+00 -8.213567175629E+00 -8.214001829035E+00 -8.214722064646E+00
 -8.215713238215E+00 -8.216998497446E+00 -8.218606924655E+00 -8.220408057790E+00
 -8.222381565645E+00 -8.224614154451E+00 -8.227042186497E+00 -8.229575444314E+00
 -8.232490683203E+00 -8.235365389582E+00 -8.238534819941E+00 -8.241462344725E+00
 -8.244541540082E+00 -8.247174305356E+00 -8.249804817707E+00 -8.252349476771E+00
 -8.254694597762E+00 -8.256326635583E+00 -8.257635829847E+00 -8.258500157291E+00
 -8.258770419033E+00 -8.258265552760E+00 -8.256767401300E+00 -8.254836716538E+00
 -8.252073573047E+00 -8.248332973606E+00 -8.243451252208E+00 -8.237244467029E+00
 -8.229506824341E+00 -8.220009187034E+00 -8.208497735753E+00 -8.194692866671E+00
 -8.178288428347E+00 -8.158951419909E+00 -8.144254387105E+00 -8.127981823952E+00
 -8.110016028666E+00 -8.090234827557E+00 -8.068512019060E+00 -8.044717938128E+00
 -8.018720153869E+00 -7.990384313138E+00 -7.959575142262E+00 -7.926157617962E+00
 -7.889998316916E+00 -7.850966950915E+00 -7.808938091345E+00 -7.763793082347E+00
 -7.715422136589E+00 -7.663726600793E+00 -7.608621370016E+00 -7.550037419939E+00
 -7.487924415282E+00 -7.422253339541E+00 -7.353019077168E+00 -7.280242863826E+00
 -7.203974504184E+00 -7.124294240318E+00 -7.041314137975E+00 -6.955178843953E+00
 -6.866065556920E+00 -6.774183048053E+00 -6.679769568888E+00 -6.631695432065E+00
 -6.583089494270E+00 -6.533988104798E+00 -6.484428570767E+00 -6.434448926398E+00
 -6.384087678314E+00 -6.333383527360E+00 -6.282375067697E+00 -6.231100464401E+00
 -6.179597111283E+00 -6.127901271057E+00 -6.076047700668E+00 -6.024069265037E+00
 -5.971996543216E+00 -5.919857431480E+00 -5.867676748678E+00 -5.815475849684E+00
 -5.763272253620E+00 -5.711079294058E+00 -5.658905799115E+00 -5.606755809886E+00
 -5.554628346220E+00 -5.502517229246E+00 -5.450410970337E+00 -5.398292736457E+00
 -5.346140401730E+00 -5.293926694975E+00 -5.241619452452E+00 -5.189181984408E+00
 -5.136573563046E+00 -5.083750038167E+00 -5.030664585134E+00 -4.977268587702E+00
 -4.923512655792E+00 -4.869347775379E+00 -4.814726584330E+00 -4.759604764213E+00
 -4.703942533860E+00 -4.647706225897E+00 -4.590869922415E+00 -4.533417120774E+00
 -4.475342395108E+00 -4.416653013686E+00 -4.357370467048E+00 -4.297531856926E+00
 -4.237191091728E+00 -4.176419831028E+00 -4.115308119384E+00 -4.053964649319E+00
 -3.992516594704E+00 -3.931108959516E+00 -3.869903393238E+00 -3.809076433477E+00
 -3.748817148660E+00 -3.689324169339E+00 -3.630802115388E+00 -3.573457448315E+00
 -3.517493802406E+00 -3.463106875219E+00 -3.410478985970E+00 -3.359773438859E+00
 -3.311128856067E+00 -3.264653670535E+00 -3.220420990396E+00 -3.178464063188E+00
 -3.138772577216E+00 -3.101290037995E+00 -3.065912448123E+00 -3.032488497999E+00
 -3.000821441634E+00 -2.970672786035E+00 -2.941767864297E+00 -2.913803292490E+00
 -2.886456229890E+00 -2.859395273422E+00 -2.832292723035E+00 -2.804837858746E+00
 -2.776750776712E+00 -2.747796245690E+00 -2.717796972317E+00 -2.686645609770E+00
 -2.655115197214E+00 -2.624090265034E+00 -2.593536905347E+00 -2.563447226817E+00
 -2.533811237427E+00 -2.504616796879E+00 -2.475849563722E+00 -2.447492943993E+00
 -2.419528051026E+00 -2.391933688489E+00 -2.364686370328E+00 -2.337760392346E+00
 -2.311127971017E+00 -2.284759467184E+00 -2.258623717436E+00 -2.232688507877E+00
 -2.206921248453E+00 -2.181289947850E+00 -2.155763233506E+00 -2.130328074532E+00
 -2.105057191981E+00 -2.080097208512E+00 -2.055431752098E+00 -2.031059072370E+00
 -2.006975475618E+00 -1.983177589040E+00 -1.959662054597E+00 -1.936425556866E+00
 -1.913464816187E+00 -1.890776581533E+00 -1.868357621249E+00 -1.846204711826E+00
 -1.824314626079E+00 -1.802684123512E+00 -1.781309947312E+00 -1.760188833831E+00
 -1.739317540220E+00 -1.718692892422E+00 -1.698311847387E+00 -1.678171551019E+00
 -1.658269363147E+00 -1.638602824456E+00 -1.619169565675E+00 -1.599967194493E+00
 -1.580993210600E+00 -1.562244978953E+00 -1.543719756800E+00 -1.525414749295E+00
 -1.507327167240E+00 -1.489454269516E+00 -1.471793384449E+00 -1.454341913526E+00
 -1.437097324787E+00 -1.420057142504E+00 -1.403218937248E+00 -1.386580318060E+00