<?xml version="1.0" encoding="UTF-8" ?>
<psml version="1.1" energy_unit="hartree" length_unit="bohr"
 uuid="16852cc0-44c6-11e8-5723-9f14f47f8e6a"
 xmlns="http://esl.cecam.org/PSML/ns/1.1">
<provenance creator="ONCVPSP-3.3.0+psml-3.3.0-73 (fully-relativistic)"
 date="2018-04-20">
<annotation action="semilocal-pseudopotential-generation"
 action-cont="projectors-generation" />
<input-file name="oncvpsp-input">
<![CDATA[# atsym z nc nv iexc psfile
Rh 45 6 4 4 both
# n l f
1 0 2.0
2 0 2.0
2 1 6.0
3 0 2.0
3 1 6.0
3 2 10.0
4 0 2.0
4 1 6.0
4 2 8.0
5 0 1.0
# lmax
2
# l rc ep ncon nbas qcut
0 1.4 0.0 4 7 9.4
1 1.4 0.0 4 7 9.4
2 1.35 0.0 4 7 9.4
# lloc lpopt rc5 dvloc0
4 5 1.3 0.0
# l nproj debl
0 2 1.0
1 2 1.0
2 2 1.0
# icmod fcfact rcfact
3 7.0 1.23
# epsh1 epsh2 depsh
-12.0 12.0 0.02
# rlmax drl
6.0 0.01
 0
]]>
</input-file>
</provenance>
<pseudo-atom-spec atomic-label="Rh" atomic-number="45" z-pseudo="17"
 flavor="Hamann&apos;s oncvpsp" relativity="dirac" spin-dft="no"
 core-corrections="yes">
<annotation pseudo-energy="-110.648247102" />
<exchange-correlation>
<annotation oncvpsp-xc-code="4" oncvpsp-xc-type="GGA -- Perdew-Burke-Ernzerhof" />
<libxc-info number-of-functionals="2">
<functional name="Perdew, Burke &amp; Ernzerhof (GGA)" type="exchange" id="101" />
<functional name="Perdew, Burke &amp; Ernzerhof (GGA)" type="correlation"
 id="130" />
</libxc-info>
</exchange-correlation>
<valence-configuration total-valence-charge="17">
<shell n="4" l="s" occupation="2" />
<shell n="4" l="p" occupation="6" />
<shell n="4" l="d" occupation="8" />
<shell n="5" l="s" occupation="1" />
</valence-configuration>
</pseudo-atom-spec>
<grid npts="457">
<annotation type="sampled from oncvpsp log grid"
 recipe="r(i:1..N) = r1*exp(a*(i-1)) + r=0; resampled"
 recipe-cont="r1: scale; a: step" scale="0.111111111111E-04"
 step="0.119285708653E-01" delta="0.500000000000E-02" rmax="44.2313729721" />
<grid-data>
  0.000000000000E+00  5.050802712143E-03  1.008858204474E-02  1.513448179686E-02
  2.015115091088E-02  2.527723656897E-02  3.059269895389E-02  3.572435987247E-02
  4.073334664942E-02  4.589392675613E-02  5.109516791654E-02  5.621133901271E-02
  6.183979351557E-02  6.722512498246E-02  7.307943917649E-02  7.850155885119E-02
  8.432597200403E-02  8.950842564066E-02  9.500937932012E-02  1.008484072218E-01
  1.070462865031E-01  1.122777383704E-01  1.177648561701E-01  1.235201345346E-01
  1.295566787210E-01  1.358882344523E-01  1.425292192178E-01  1.477220900228E-01
  1.531041564703E-01  1.586823116628E-01  1.644636998444E-01  1.704557255504E-01
  1.766660630911E-01  1.831026663806E-01  1.897737791236E-01  1.966879453737E-01
  2.038540204763E-01  2.112811824101E-01  2.163823552782E-01  2.216066908640E-01
  2.269571628082E-01  2.324368165471E-01  2.380487710458E-01  2.437962205739E-01
  2.496824365235E-01  2.557107692709E-01  2.618846500842E-01  2.682075930758E-01
  2.746831972030E-01  2.813151483163E-01  2.881072212572E-01  2.950632820073E-01
  3.021872898880E-01  3.094832998151E-01  3.169554646058E-01  3.246080373433E-01
  3.324453737969E-01  3.404719349019E-01  3.486922892981E-01  3.571111159309E-01
  3.657332067140E-01  3.745634692569E-01  3.836069296586E-01  3.928687353683E-01
  4.023541581150E-01  4.120685969086E-01  4.220175811123E-01  4.270817920857E-01
  4.322067735907E-01  4.373932548738E-01  4.426419739323E-01  4.479536776194E-01
  4.533291217509E-01  4.587690712119E-01  4.642743000664E-01  4.698455916672E-01
  4.754837387672E-01  4.811895436324E-01  4.869638181560E-01  4.928073839739E-01
  4.987210725816E-01  5.047057254526E-01  5.107621941580E-01  5.168913404879E-01
  5.230940365738E-01  5.293711650126E-01  5.357236189928E-01  5.421523024207E-01
  5.486581300498E-01  5.552420276104E-01  5.619049319417E-01  5.686477911250E-01
  5.754715646185E-01  5.823772233939E-01  5.893657500746E-01  5.964381390755E-01
  6.035953967444E-01  6.108385415054E-01  6.181686040034E-01  6.255866272515E-01
  6.330936667785E-01  6.406907907798E-01  6.483790802692E-01  6.561596292324E-01
  6.640335447832E-01  6.720019473206E-01  6.800659706884E-01  6.882267623367E-01
  6.964854834847E-01  7.048433092866E-01  7.133014289980E-01  7.218610461460E-01
  7.305233786997E-01  7.392896592441E-01  7.481611351551E-01  7.571390687769E-01
  7.662247376022E-01  7.754194344535E-01  7.847244676669E-01  7.941411612789E-01
  8.036708552143E-01  8.133149054768E-01  8.230746843426E-01  8.329515805547E-01
  8.429469995213E-01  8.530623635156E-01  8.632991118778E-01  8.736587012203E-01
  8.841426056349E-01  8.947523169026E-01  9.054893447054E-01  9.163552168419E-01
  9.273514794440E-01  9.384796971973E-01  9.497414535637E-01  9.611383510064E-01
  9.726720112185E-01  9.843440753531E-01  9.961562042574E-01  1.008110078708E+00
  1.020207399653E+00  1.032449888449E+00  1.044839287110E+00  1.057377358555E+00
  1.070065886858E+00  1.082906677500E+00  1.095901557630E+00  1.109052376322E+00
  1.122361004838E+00  1.135829336896E+00  1.149459288939E+00  1.163252800406E+00
  1.177211834011E+00  1.191338376019E+00  1.205634436531E+00  1.220102049770E+00
  1.234743274367E+00  1.249560193659E+00  1.264554915983E+00  1.279729574975E+00
  1.295086329875E+00  1.310627365833E+00  1.326354894223E+00  1.342271152954E+00
  1.358378406789E+00  1.374678947671E+00  1.391175095043E+00  1.407869196183E+00
  1.424763626537E+00  1.441860790056E+00  1.459163119537E+00  1.476673076971E+00
  1.494393153895E+00  1.512325871741E+00  1.530473782202E+00  1.548839467589E+00
  1.567425541200E+00  1.586234647694E+00  1.605269463467E+00  1.624532697028E+00
  1.644027089392E+00  1.663755414465E+00  1.683720479439E+00  1.703925125192E+00
  1.724372226694E+00  1.745064693415E+00  1.766005469736E+00  1.787197535372E+00
  1.808643905797E+00  1.830347632666E+00  1.852311804258E+00  1.874539545910E+00
  1.897034020460E+00  1.919798428706E+00  1.942836009850E+00  1.966150041969E+00
  1.989743842472E+00  2.013620768582E+00  2.037784217805E+00  2.062237628419E+00
  2.086984479960E+00  2.112028293719E+00  2.137372633244E+00  2.163021104843E+00
  2.188977358101E+00  2.215245086398E+00  2.241828027435E+00  2.268729963764E+00
  2.295954723329E+00  2.323506180009E+00  2.351388254169E+00  2.379604913219E+00
  2.408160172178E+00  2.437058094244E+00  2.466302791375E+00  2.495898424871E+00
  2.525849205970E+00  2.556159396442E+00  2.586833309199E+00  2.617875308909E+00
  2.649289812616E+00  2.681081290368E+00  2.713254265852E+00  2.745813317042E+00
  2.778763076847E+00  2.812108233769E+00  2.845853532574E+00  2.880003774965E+00
  2.914563820265E+00  2.949538586108E+00  2.984933049141E+00  3.020752245731E+00
  3.057001272680E+00  3.093685287952E+00  3.130809511407E+00  3.168379225544E+00
  3.206399776250E+00  3.244876573566E+00  3.283815092448E+00  3.323220873558E+00
  3.363099524040E+00  3.403456718329E+00  3.444298198949E+00  3.485629777336E+00
  3.527457334664E+00  3.569786822680E+00  3.612624264552E+00  3.655975755727E+00
  3.699847464796E+00  3.744245634373E+00  3.789176581986E+00  3.834646700970E+00
  3.880662461381E+00  3.927230410918E+00  3.974357175849E+00  4.022049461959E+00
  4.070314055502E+00  4.119157824168E+00  4.168587718059E+00  4.218610770675E+00
  4.269234099923E+00  4.320464909122E+00  4.372310488032E+00  4.424778213888E+00
  4.477875552455E+00  4.531610059084E+00  4.585989379793E+00  4.641021252351E+00
  4.696713507379E+00  4.753074069468E+00  4.810110958301E+00  4.867832289801E+00
  4.926246277279E+00  4.985361232606E+00  5.045185567397E+00  5.105727794206E+00
  5.166996527736E+00  5.229000486069E+00  5.291748491902E+00  5.355249473805E+00
  5.419512467491E+00  5.484546617100E+00  5.550361176506E+00  5.616965510624E+00
  5.684369096751E+00  5.752581525912E+00  5.821612504223E+00  5.891471854274E+00
  5.962169516525E+00  6.033715550723E+00  6.106120137332E+00  6.179393578980E+00
  6.253546301928E+00  6.328588857551E+00  6.404531923842E+00  6.481386306928E+00
  6.559162942611E+00  6.637872897922E+00  6.717527372697E+00  6.798137701170E+00
  6.879715353584E+00  6.962271937827E+00  7.045819201080E+00  7.130369031493E+00
  7.215933459871E+00  7.302524661390E+00  7.390154957327E+00  7.478836816814E+00
  7.568582858616E+00  7.659405852920E+00  7.751318723155E+00  7.844334547832E+00
  7.938466562406E+00  8.033728161155E+00  8.130132899089E+00  8.227694493878E+00
  8.326426827805E+00  8.426343949738E+00  8.527460077135E+00  8.629789598061E+00
  8.733347073238E+00  8.838147238117E+00  8.944205004974E+00  9.051535465034E+00
  9.160153890614E+00  9.270075737301E+00  9.381316646149E+00  9.493892445903E+00
  9.607819155254E+00  9.723112985117E+00  9.839790340938E+00  9.957867825029E+00
  1.007736223893E+01  1.019829058580E+01  1.032067007283E+01  1.044451811370E+01
  1.056985233106E+01  1.069669055904E+01  1.082505084575E+01  1.095495145589E+01
  1.108641087337E+01  1.121944780385E+01  1.135408117749E+01  1.149033015162E+01
  1.162821411344E+01  1.176775268280E+01  1.190896571500E+01  1.205187330358E+01
  1.219649578322E+01  1.234285373262E+01  1.249096797741E+01  1.264085959314E+01
  1.279254990826E+01  1.294606050716E+01  1.310141323324E+01  1.325863019204E+01
  1.341773375434E+01  1.357874655940E+01  1.374169151811E+01  1.390659181633E+01
  1.407347091812E+01  1.424235256914E+01  1.441326079997E+01  1.458621992957E+01
  1.476125456872E+01  1.493838962355E+01  1.511765029903E+01  1.529906210262E+01
  1.548265084785E+01  1.566844265803E+01  1.585646396992E+01  1.604674153756E+01
  1.623930243601E+01  1.643417406524E+01  1.663138415403E+01  1.683096076387E+01
  1.703293229304E+01  1.723732748056E+01  1.744417541032E+01  1.765350551525E+01
  1.786534758143E+01  1.807973175241E+01  1.829668853344E+01  1.851624879584E+01
  1.873844378139E+01  1.896330510677E+01  1.919086476805E+01  1.942115514526E+01
  1.965420900701E+01  1.989005951509E+01  2.012874022927E+01  2.037028511202E+01
  2.061472853337E+01  2.086210527577E+01  2.111245053908E+01  2.136579994555E+01
  2.162218954489E+01  2.188165581943E+01  2.214423568926E+01  2.240996651754E+01
  2.267888611575E+01  2.295103274913E+01  2.322644514212E+01  2.350516248383E+01
  2.378722443364E+01  2.407267112684E+01  2.436154318036E+01  2.465388169853E+01
  2.494972827891E+01  2.524912501825E+01  2.555211451847E+01  2.585873989270E+01
  2.616904477141E+01  2.648307330866E+01  2.680087018837E+01  2.712248063063E+01
  2.744795039820E+01  2.777732580298E+01  2.811065371261E+01  2.844798155716E+01
  2.878935733585E+01  2.913482962388E+01  2.948444757936E+01  2.983826095032E+01
  3.019632008172E+01  3.055867592270E+01  3.092538003377E+01  3.129648459418E+01
  3.167204240931E+01  3.205210691822E+01  3.243673220124E+01  3.282597298765E+01
  3.321988466351E+01  3.361852327947E+01  3.402194555882E+01  3.443020890553E+01
  3.484337141239E+01  3.526149186934E+01  3.568462977178E+01  3.611284532904E+01
  3.654619947299E+01  3.698475386666E+01  3.742857091306E+01  3.787771376402E+01
  3.833224632919E+01  3.879223328514E+01  3.925774008456E+01  3.972883296557E+01
  4.020557896116E+01  4.068804590869E+01  4.117630245960E+01  4.167041808911E+01
  4.217046310618E+01  4.267650866346E+01  4.318862676742E+01  4.370689028863E+01
  4.423137297209E+01
</grid-data>
</grid>
<valence-charge total-charge="17" is-unscreening-charge="yes"
 rescaled-to-z-pseudo="no">
<radfunc>
<data npts="457">
  3.498294802842E-01  3.510574078409E-01  3.547297192178E-01  3.608618129485E-01
  3.693987761875E-01  3.806438849125E-01  3.950083793575E-01  4.115019813885E-01
  4.301045725498E-01  4.518745975633E-01  4.765116143123E-01  5.034084121919E-01
  5.360783442199E-01  5.703892343546E-01  6.111131505491E-01  6.520513305928E-01
  6.995216113803E-01  7.448417176188E-01  7.961638723958E-01  8.543128856781E-01
  9.202330139466E-01  9.792861963331E-01  1.044628148630E+00  1.116957341820E+00
  1.197053401211E+00  1.285786582226E+00  1.384128174447E+00  1.464837211410E+00
  1.552060549632E+00  1.646343225999E+00  1.748275935286E+00  1.858498301890E+00
  1.977702189215E+00  2.106634983075E+00  2.246102765173E+00  2.396973268020E+00
  2.560178472937E+00  2.736716677450E+00  2.862339622532E+00  2.994693326833E+00
  3.134123774516E+00  3.280990066118E+00  3.435664022667E+00  3.598529600405E+00
  3.769982085761E+00  3.950427037070E+00  4.140278936143E+00  4.339959509428E+00
  4.549895675042E+00  4.770517068606E+00  5.002253097578E+00  5.245529470865E+00
  5.500764147959E+00  5.768362649978E+00  6.048712673874E+00  6.342177951099E+00
  6.649091293363E+00  6.969746771167E+00  7.304390975952E+00  7.653213324284E+00
  8.016335373104E+00  8.393799129043E+00  8.785554352803E+00  9.191444882010E+00
  9.611194023459E+00  1.004438909857E+01  1.049046526481E+01  1.071811152624E+01
  1.094868878106E+01  1.118207611959E+01  1.141813993624E+01  1.165673339781E+01
  1.189769591902E+01  1.214085264866E+01  1.238601397004E+01  1.263297501963E+01
  1.288151522811E+01  1.313139788839E+01  1.338236975555E+01  1.363416068360E+01
  1.388648330480E+01  1.413903275708E+01  1.439148646553E+01  1.464350398445E+01
  1.489472690621E+01  1.514477884367E+01  1.539326549313E+01  1.563977478469E+01
  1.588387712710E+01  1.612512575422E+01  1.636305718016E+01  1.659719177007E+01
  1.682703443328E+01  1.705207544540E+01  1.727179140553E+01  1.748564633415E+01
  1.769309291708E+01  1.789357389966E+01  1.808652363505E+01  1.827136978926E+01
  1.844753520460E+01  1.861443992196E+01  1.877150336114E+01  1.891814665677E+01
  1.905379514600E+01  1.917788100202E+01  1.928984600608E+01  1.938914444822E+01
  1.947524614515E+01  1.954763956135E+01  1.960583501726E+01  1.964936796621E+01
  1.967780231918E+01  1.969073379443E+01  1.968779326665E+01  1.966865008801E+01
  1.963301535168E+01  1.958064506618E+01  1.951134320766E+01  1.942496461543E+01
  1.932141769530E+01  1.920066689451E+01  1.906273491171E+01  1.890770460589E+01
  1.873572056877E+01  1.854699032640E+01  1.834178513817E+01  1.812044036317E+01
  1.788335536805E+01  1.763099295352E+01  1.736387828186E+01  1.708259729243E+01
  1.678779459839E+01  1.648017086368E+01  1.616047966629E+01  1.582952386094E+01
  1.548815146135E+01  1.513725107008E+01  1.477774689111E+01  1.441059336758E+01
  1.403676949419E+01  1.365727285994E+01  1.327311348267E+01  1.288530750180E+01
  1.249487079915E+01  1.210281262079E+01  1.171012927374E+01  1.131779797144E+01
  1.092677090039E+01  1.053796957680E+01  1.015227955789E+01  9.770545565941E+00
  9.393567075615E+00  9.022094406508E+00  8.656825352654E+00  8.298402370257E+00
  7.947410333661E+00  7.604374858224E+00  7.269761177651E+00  6.943973552826E+00
  6.627355179658E+00  6.320188555416E+00  6.022696256706E+00  5.735042078504E+00
  5.457332483011E+00  5.189618383008E+00  4.931897496253E+00  4.684117418262E+00
  4.446180334046E+00  4.217952461816E+00  3.999276103872E+00  3.789972304583E+00
  3.589843394763E+00  3.398675428081E+00  3.216240513732E+00  3.042299026592E+00
  2.876601692950E+00  2.718891548605E+00  2.568905767670E+00  2.426377361524E+00
  2.291036748456E+00  2.162613195462E+00  2.040836134493E+00  1.925436356224E+00
  1.816147085025E+00  1.712704939405E+00  1.614850782519E+00  1.522330467911E+00
  1.434895485963E+00  1.352303516355E+00  1.274318892448E+00  1.200712983352E+00
  1.131264499522E+00  1.065759727678E+00  1.003992700803E+00  9.457653088196E-01
  8.908873554399E-01  8.391765664732E-01  7.904585546876E-01  7.445667460910E-01
  7.013422722583E-01  6.606338330763E-01  6.222975340173E-01  5.861967017840E-01
  5.522016818984E-01  5.201896215408E-01  4.900442406755E-01  4.616555942423E-01
  4.349198279382E-01  4.097389298672E-01  3.860204801024E-01  3.636773999796E-01
  3.426277027278E-01  3.227942468427E-01  3.041044934196E-01  2.864902684879E-01
  2.698875312259E-01  2.542361487853E-01  2.394796783175E-01  2.255651566674E-01
  2.124428980899E-01  2.000663002377E-01  1.883916585833E-01  1.773779893524E-01
  1.669868609781E-01  1.571822340209E-01  1.479303094475E-01  1.391993851145E-01
  1.309597202652E-01  1.231834078161E-01  1.158442541820E-01  1.089176663721E-01
  1.023805460687E-01  9.621119039506E-02  9.038919906693E-02  8.489538762163E-02
  7.971170641711E-02  7.482116509517E-02  7.020776220750E-02  6.585641970955E-02
  6.175292203426E-02  5.788385946702E-02  5.423657555284E-02  5.079911827724E-02
  4.756019477333E-02  4.450912931905E-02  4.163582439977E-02  3.893072462314E-02
  3.638478328425E-02  3.398943139041E-02  3.173654896568E-02  2.961843846573E-02
  2.762780014385E-02  2.575770921856E-02  2.400159470263E-02  2.235321976222E-02
  2.080666348384E-02  1.935630393211E-02  1.799680239548E-02  1.672308871686E-02
  1.553034761810E-02  1.441400593240E-02  1.336972066519E-02  1.239336781062E-02
  1.148103185612E-02  1.062899591380E-02  9.833732422061E-03  9.091894366580E-03
  8.400306974195E-03  7.755959837946E-03  7.155999435813E-03  6.597722009639E-03
  6.078566774497E-03  5.596109432160E-03  5.148055965524E-03  4.732236693691E-03
  4.346600570062E-03  3.989209708097E-03  3.658234121507E-03  3.351946667503E-03
  3.068718183277E-03  2.807012807355E-03  2.565383478557E-03  2.342467606363E-03
  2.136982907232E-03  1.947723402107E-03  1.773555570828E-03  1.613414659548E-03
  1.466301137512E-03  1.331277299696E-03  1.207464011929E-03  1.094037595058E-03
  9.902268447419E-04  8.953101833169E-04  8.086129401032E-04  7.295047563690E-04
  6.573971110567E-04  5.917409632453E-04  5.320245072192E-04  4.777710359337E-04
  4.285369086111E-04  3.839096181828E-04  3.435059543029E-04  3.069702577090E-04
  2.739727617851E-04  2.442080172912E-04  2.173933963636E-04  1.932676720472E-04
  1.715896697982E-04  1.521369875839E-04  1.347047813983E-04  1.191046132095E-04
  1.051633585445E-04  9.272217110421E-05  8.163550197188E-05  7.177017114067E-05
  6.300448923140E-05  5.522742740025E-05  4.833783354945E-05  4.224369305108E-05
  3.686143227496E-05  3.211526327921E-05  2.793656807574E-05  2.426332092637E-05
  2.103954715883E-05  1.821481701790E-05  1.574377308731E-05  1.358568983450E-05
  1.170406384364E-05  1.006623331567E-05  8.643025426332E-06  7.408430147657E-06
  6.339299154143E-06  5.415068453732E-06  4.617503405306E-06  3.930464809689E-06
  3.339694789722E-06  2.832621207128E-06  2.398179399362E-06  2.026650058276E-06
  1.709512113871E-06  1.439309530377E-06  1.209530967933E-06  1.014501310866E-06
  8.492841125314E-07  7.095940564383E-07  5.917185836140E-07  4.924478863063E-07
  4.090125179845E-07  3.390279187049E-07  2.804452030303E-07  2.315076045246E-07
  1.907120161689E-07  1.567751096668E-07  1.286035583645E-07  1.052679282823E-07
  8.597983945551E-08  7.007203534565E-08  5.698103148867E-08  4.623204577931E-08
  3.742594187698E-08  3.022794418931E-08  2.435790780169E-08  1.958194964161E-08
  1.570526817445E-08  1.256599811021E-08  1.002996405421E-08  7.986212855712E-09
  6.343218701676E-09  5.025667867905E-09  3.971741582000E-09  3.130825771330E-09
  2.461585663881E-09  1.930351372726E-09  1.509767824348E-09  1.177668785814E-09
  9.161402512400E-10  7.086032292562E-10  5.436997977366E-10  4.196756652847E-10
  3.230215588438E-10  2.479123882564E-10  1.897141124371E-10  1.447508821028E-10
  1.101154469022E-10  8.351524969089E-11  6.314786735184E-11  4.760050939699E-11
  3.576917713776E-11  2.679383931519E-11  2.000661405825E-11  1.489047889125E-11
  1.104647514845E-11  8.167743585817E-12  6.019035512210E-12  4.420598179499E-12
  3.235542902327E-12  2.359976658049E-12  1.715318926202E-12  1.242340524688E-12
  8.965546440372E-13  6.446659332583E-13  4.618445124269E-13  3.296408244990E-13
  2.343964975561E-13  1.660376996728E-13  1.171623453812E-13  8.235220122317E-14
  5.765645948849E-14  4.020553771993E-14  2.792339467517E-14  1.931407976458E-14
  1.330399469332E-14  9.125797957378E-15  6.233308504934E-15  4.239389838277E-15
  2.870798758495E-15  1.935504727899E-15  1.299137044262E-15  8.680841205231E-16
  5.774193864554E-16  3.823137479128E-16  2.519552933170E-16  1.652638219432E-16
  1.078843002781E-16  7.008740355727E-17  4.531038543278E-17  2.914782257102E-17
  1.865688372976E-17  1.188148433818E-17  7.527914876882E-18  4.744871208730E-18
  2.975040067606E-18  1.855463761005E-18  1.151000936131E-18  7.101242795092E-19
  4.357126152724E-19  2.658546467387E-19  1.613012149545E-19  9.730851493956E-20
  5.836521333531E-20  3.480303962464E-20  2.063049310915E-20  1.215627345969E-20
  7.119646363618E-21  4.144305491033E-21  2.397442741551E-21  1.378210595267E-21
  0.000000000000E+00  0.000000000000E+00  0.000000000000E+00  0.000000000000E+00
  0.000000000000E+00  0.000000000000E+00  0.000000000000E+00  0.000000000000E+00
  0.000000000000E+00
</data>
</radfunc>
</valence-charge>
<pseudocore-charge matching-radius="0.656159629232"
 number-of-continuous-derivatives="4">
<annotation model-charge-form="Teter function with specified parameters" />
<radfunc>
<data npts="290">
  1.406644091956E+02  1.406470045485E+02  1.405949820278E+02  1.405082100057E+02
  1.403876074586E+02  1.402290991728E+02  1.400271996375E+02  1.397961684720E+02
  1.395366042338E+02  1.392341861000E+02  1.388936638370E+02  1.385239659899E+02
  1.380777581019E+02  1.376124332669E+02  1.370644265863E+02  1.365181297935E+02
  1.358902944122E+02  1.352963999459E+02  1.346301755896E+02  1.338832261680E+02
  1.330462931317E+02  1.323051497484E+02  1.314942609411E+02  1.306075529093E+02
  1.296385255358E+02  1.285802448970E+02  1.274253414587E+02  1.264910790149E+02
  1.254946426311E+02  1.244324615396E+02  1.233008472284E+02  1.220960043476E+02
  1.208140447792E+02  1.194510053184E+02  1.180028694570E+02  1.164655937914E+02
  1.148351396087E+02  1.131075102286E+02  1.118998347440E+02  1.106461018537E+02
  1.093452183943E+02  1.079961336479E+02  1.065978482361E+02  1.051494237629E+02
  1.036499932302E+02  1.020987722442E+02  1.004950710230E+02  9.883830721095E+01
  9.712801949332E+01  9.536388199574E+01  9.354571943918E+01  9.167352300676E+01
  8.974746686153E+01  8.776792523521E+01  8.573548998581E+01  8.365098849817E+01
  8.151550177430E+01  7.933038253114E+01  7.709727309152E+01  7.481812282015E+01
  7.249520481997E+01  7.013113156705E+01  6.772886912310E+01  6.529174952609E+01
  6.282348092079E+01  6.032815495492E+01  5.781025093339E+01  5.654433811345E+01
  5.527463619411E+01  5.400181357481E+01  5.272656214821E+01  5.144959689927E+01
  5.017165541406E+01  4.889349729439E+01  4.761590347362E+01  4.633967542989E+01
  4.506563429259E+01  4.379461983868E+01  4.252748937528E+01  4.126511650559E+01
  4.000838977542E+01  3.875821119813E+01  3.751549465628E+01  3.628116417872E+01
  3.505615209264E+01  3.384139705064E+01  3.263784193372E+01  3.144643163185E+01
  3.026811070453E+01  2.910382092507E+01  2.795449871272E+01  2.682107245851E+01
  2.570445975109E+01  2.460556451072E+01  2.352527404014E+01  2.246445600272E+01
  2.142395533949E+01  2.040459113776E+01  1.940715346570E+01  1.843240018827E+01
  1.748105378142E+01  1.655379816258E+01  1.565127555691E+01  1.477408341981E+01
  1.392277143732E+01  1.309783862701E+01  1.229973056307E+01  1.152883674961E+01
  1.078548816714E+01  1.006995501735E+01  9.382444691557E+00  8.723099988017E+00
  8.091997602950E+00  7.489146919568E+00  6.914489118301E+00  6.367896630204E+00
  5.849172953869E+00  5.358052854156E+00  4.894202958694E+00  4.457222765355E+00
  4.046646070783E+00  3.661942826566E+00  3.302521425819E+00  2.967731418723E+00
  2.656866651155E+00  2.369168815720E+00  2.103831399594E+00  1.860004008417E+00
  1.636797040246E+00  1.433286678323E+00  1.248520166212E+00  1.081521323769E+00
  9.312962576088E-01  7.968392152492E-01  6.771385280666E-01  5.711825847383E-01
  4.779657740325E-01  3.964943337753E-01  3.257920416597E-01  2.649056833696E-01
  2.129102343359E-01  1.689136934036E-01  1.320615098019E-01  1.015405491031E-01
  7.658254932637E-02  5.646702496290E-02  4.052358440176E-02  2.813363493505E-02
  1.873145908501E-02  1.180465626498E-02  6.893954568208E-03  3.592408550133E-03
  1.544009979516E-03  4.417494124263E-04  2.517680173040E-05  7.751890047919E-05
  4.224196571139E-04  9.203768527179E-04  1.464953636855E-03  1.978847153729E-03
  2.409897934330E-03  2.727123038436E-03  2.916853003955E-03  2.979047514709E-03
  2.923857425614E-03  2.768491563016E-03  2.534435806621E-03  2.245059695202E-03
  1.923632588123E-03  1.591757723433E-03  1.268218846671E-03  9.682209694173E-04
  7.029947774958E-04  4.797237424492E-04  3.017445390380E-04  1.689652989425E-04
  7.844279539411E-05  2.505899035452E-05  2.239481953767E-06  2.661116348734E-06
  1.890308131266E-05  4.400475037784E-05  7.190385286186E-05  9.773957705009E-05
  1.180162922898E-04  1.306340155849E-04  1.348009045272E-04  1.308503731830E-04
  1.199904733990E-04  1.040156998507E-04  8.501129337228E-05  6.507756615846E-05
  4.609708319555E-05  2.956120890778E-05  1.646520193385E-05  7.273428546249E-06
  1.949095081305E-06  3.684533481324E-08  7.821813482236E-07  3.269316463012E-06
  6.558907764424E-06  9.809050759166E-06  1.236662932646E-05  1.382107768979E-05
  1.401816929346E-05  1.303688203157E-05  1.113701311590E-05  8.688462875849E-06
  6.094604352452E-06  3.721782773427E-06  1.844891494361E-06  6.155424082301E-07
  5.517347675590E-08  0.000000000000E+00  0.000000000000E+00  0.000000000000E+00
  0.000000000000E+00  0.000000000000E+00  0.000000000000E+00  0.000000000000E+00
  0.000000000000E+00  0.000000000000E+00  0.000000000000E+00  0.000000000000E+00
  0.000000000000E+00  0.000000000000E+00  0.000000000000E+00  0.000000000000E+00
  0.000000000000E+00  0.000000000000E+00  0.000000000000E+00  0.000000000000E+00
  0.000000000000E+00  0.000000000000E+00  0.000000000000E+00  0.000000000000E+00
  0.000000000000E+00  0.000000000000E+00  0.000000000000E+00  0.000000000000E+00
  0.000000000000E+00  0.000000000000E+00  0.000000000000E+00  0.000000000000E+00
  0.000000000000E+00  0.000000000000E+00  0.000000000000E+00  0.000000000000E+00
  0.000000000000E+00  0.000000000000E+00  0.000000000000E+00  0.000000000000E+00
  0.000000000000E+00  0.000000000000E+00  0.000000000000E+00  0.000000000000E+00
  0.000000000000E+00  0.000000000000E+00  0.000000000000E+00  0.000000000000E+00
  0.000000000000E+00  0.000000000000E+00  0.000000000000E+00  0.000000000000E+00
  0.000000000000E+00  0.000000000000E+00  0.000000000000E+00  0.000000000000E+00
  0.000000000000E+00  0.000000000000E+00  0.000000000000E+00  0.000000000000E+00
  0.000000000000E+00  0.000000000000E+00  0.000000000000E+00  0.000000000000E+00
  0.000000000000E+00  0.000000000000E+00  0.000000000000E+00  0.000000000000E+00
  0.000000000000E+00  0.000000000000E+00  0.000000000000E+00  0.000000000000E+00
  0.000000000000E+00  0.000000000000E+00  0.000000000000E+00  0.000000000000E+00
  0.000000000000E+00  0.000000000000E+00
</data>
</radfunc>
</pseudocore-charge>
<semilocal-potentials set="scalar_relativistic">
<slps n="4" l="s" rc="1.40786919618">
<radfunc>
<data npts="290">
  2.762437079089E+01  2.760067007857E+01  2.752993113772E+01  2.741228115720E+01
  2.724946517280E+01  2.703671007622E+01  2.676772400335E+01  2.646265611750E+01
  2.612333743927E+01  2.573249641955E+01  2.529810036990E+01  2.483317175706E+01
  2.428108288378E+01  2.371562850978E+01  2.306278746745E+01  2.242564943737E+01
  2.170971436059E+01  2.104799416547E+01  2.032300220600E+01  1.953114017821E+01
  1.866915760879E+01  1.792720865561E+01  1.713747782579E+01  1.629915685760E+01
  1.541180869441E+01  1.447542138864E+01  1.349045948411E+01  1.272043430549E+01
  1.192425284772E+01  1.110272381375E+01  1.025684720259E+01  9.387817510582E+00
  8.497024368435E+00  7.586050400193E+00  6.656666151311E+00  5.710822005914E+00
  4.750637096409E+00  3.778385298694E+00  3.124699546654E+00  2.467465061791E+00
  1.807447420145E+00  1.145430023021E+00  4.822110459150E-01 -1.813997109083E-01
 -8.445840372302E-01 -1.506518558770E+00 -2.166377978772E+00 -2.823338279581E+00
 -3.476579848599E+00 -4.125290493760E+00 -4.768668314894E+00 -5.405924399097E+00
 -6.036285310488E+00 -6.658995347282E+00 -7.273318542212E+00 -7.878540385529E+00
 -8.473969253367E+00 -9.058937527944E+00 -9.632802399849E+00 -1.019494634653E+01
 -1.074477728493E+01 -1.128172840010E+01 -1.180525765538E+01 -1.231484699354E+01
 -1.281000124198E+01 -1.329024673903E+01 -1.375512970160E+01 -1.398167340610E+01
 -1.420421435988E+01 -1.442270056655E+01 -1.463708088717E+01 -1.484730496680E+01
 -1.505332315934E+01 -1.525508645101E+01 -1.545254638285E+01 -1.564565497267E+01
 -1.583436463696E+01 -1.601862811318E+01 -1.619839838304E+01 -1.637362859729E+01
 -1.654427200278E+01 -1.671028187231E+01 -1.687161143816E+01 -1.702821383011E+01
 -1.718004201874E+01 -1.732704876505E+01 -1.746918657745E+01 -1.760640767718E+01
 -1.773866397333E+01 -1.786590704876E+01 -1.798808815818E+01 -1.810515823973E+01
 -1.821706794141E+01 -1.832376766367E+01 -1.842520761941E+01 -1.852133791253E+01
 -1.861210863598E+01 -1.869746998997E+01 -1.877737242078E+01 -1.885176677999E+01
 -1.892060450378E+01 -1.898383781090E+01 -1.904141991801E+01 -1.909330526964E+01
 -1.913944978018E+01 -1.917981108425E+01 -1.921434879167E+01 -1.924302474289E+01
 -1.926580326089E+01 -1.928265139578E+01 -1.929353915880E+01 -1.929843974384E+01
 -1.929732973513E+01 -1.929018930184E+01 -1.927700238143E+01 -1.925775685543E+01
 -1.923244472266E+01 -1.920106227603E+01 -1.916361028988E+01 -1.912009422490E+01
 -1.907052445760E+01 -1.901491654000E+01 -1.895329149427E+01 -1.888567614474E+01
 -1.881210348783E+01 -1.873261309823E+01 -1.864725156703E+01 -1.855607296582E+01
 -1.845913932879E+01 -1.835652114334E+01 -1.824829783906E+01 -1.813455826439E+01
 -1.801540114037E+01 -1.789093548174E+01 -1.776128097659E+01 -1.762656831756E+01
 -1.748693947940E+01 -1.734254793989E+01 -1.719355884358E+01 -1.704014911020E+01
 -1.688250749212E+01 -1.672083458750E+01 -1.655534281856E+01 -1.638625638642E+01
 -1.621381121678E+01 -1.603825491347E+01 -1.585984673963E+01 -1.567885765031E+01
 -1.549557040391E+01 -1.531027978490E+01 -1.512329297547E+01 -1.493493011958E+01
 -1.474552512915E+01 -1.455542678803E+01 -1.436500021519E+01 -1.417462875261E+01