<?xml version="1.0" encoding="UTF-8" ?>
<psml version="1.1" energy_unit="hartree" length_unit="bohr"
 uuid="6d53f320-5172-11e8-47d6-3d92d63ffd00"
 xmlns="http://esl.cecam.org/PSML/ns/1.1">
<provenance creator="ONCVPSP-3.3.0+psml-3.3.0-73 (fully-relativistic)"
 date="2018-05-06">
<annotation action="semilocal-pseudopotential-generation"
 action-cont="projectors-generation" />
<input-file name="oncvpsp-input">
<![CDATA[# atsym z nc nv iexc psfile
I 53 8 3 4 both
# n l f
1 0 2.0
2 0 2.0
2 1 6.0
3 0 2.0
3 1 6.0
3 2 10.0
4 0 2.0
4 1 6.0
4 2 10.0
5 0 2.0
5 1 5.0
# lmax
2
# l rc ep ncon nbas qcut
0 1.95 0.0 4 7 3.6
1 1.85 0.0 4 7 4.8
2 1.85 0.0 4 7 8.4
# lloc lpopt rc5 dvloc0
4 5 1.8 0.0
# l nproj debl
0 2 2.8
1 2 2.5
2 2 2.0
# icmod fcfact rcfact
3 8.8 1.25
# epsh1 epsh2 depsh
-12.0 12.0 0.02
# rlmax drl
6.0 0.01
 0
]]>
</input-file>
</provenance>
<pseudo-atom-spec atomic-label="I" atomic-number="53" z-pseudo="17"
 flavor="Hamann&apos;s oncvpsp" relativity="dirac" spin-dft="no"
 core-corrections="yes">
<annotation pseudo-energy="-107.372920233" />
<exchange-correlation>
<annotation oncvpsp-xc-code="4" oncvpsp-xc-type="GGA -- Perdew-Burke-Ernzerhof" />
<libxc-info number-of-functionals="2">
<functional name="Perdew, Burke &amp; Ernzerhof (GGA)" type="exchange" id="101" />
<functional name="Perdew, Burke &amp; Ernzerhof (GGA)" type="correlation"
 id="130" />
</libxc-info>
</exchange-correlation>
<valence-configuration total-valence-charge="17">
<shell n="4" l="d" occupation="10" />
<shell n="5" l="s" occupation="2" />
<shell n="5" l="p" occupation="5" />
</valence-configuration>
</pseudo-atom-spec>
<grid npts="458">
<annotation type="sampled from oncvpsp log grid"
 recipe="r(i:1..N) = r1*exp(a*(i-1)) + r=0; resampled"
 recipe-cont="r1: scale; a: step" scale="0.943396226415E-05"
 step="0.119285708653E-01" delta="0.500000000000E-02" rmax="44.3807093700" />
<grid-data>
  0.000000000000E+00  5.007762362137E-03  1.012264367117E-02  1.518557966799E-02
  2.021918633661E-02  2.536257896747E-02  3.069598770929E-02  3.584497442415E-02
  4.087087281817E-02  4.604887635970E-02  5.126767823703E-02  5.640112283188E-02
  6.204858043287E-02  6.745209415252E-02  7.245669368045E-02  7.783260883245E-02
  8.360738932391E-02  8.874568074888E-02  9.419975812269E-02  9.998902882364E-02
  1.061340929567E-01  1.113209650746E-01  1.167613244709E-01  1.224675593053E-01
  1.284526631584E-01  1.347302646194E-01  1.413146583191E-01  1.464632781427E-01
  1.517994813805E-01  1.573301023957E-01  1.630622245526E-01  1.690031892890E-01
  1.751606055187E-01  1.815423593765E-01  1.881566243185E-01  1.950118715903E-01
  2.021168810766E-01  2.094807525460E-01  2.145384558354E-01  2.197182723131E-01
  2.250231502799E-01  2.304561092202E-01  2.360202415212E-01  2.417187142325E-01
  2.475547708689E-01  2.535317332568E-01  2.596530034246E-01  2.659220655392E-01
  2.723424878896E-01  2.789179249172E-01  2.856521192964E-01  2.925489040647E-01
  2.996122048045E-01  3.068460418773E-01  3.142545327123E-01  3.218418941502E-01
  3.296124448425E-01  3.375706077108E-01  3.457209124634E-01  3.540679981739E-01
  3.626166159218E-01  3.713716314966E-01  3.803380281675E-01  3.895209095195E-01
  3.989255023590E-01  4.085571596879E-01  4.184213637514E-01  4.234424201164E-01
  4.285237291578E-01  4.336660139077E-01  4.388700060746E-01  4.441364461475E-01
  4.494660835013E-01  4.548596765033E-01  4.603179926214E-01  4.658418085328E-01
  4.714319102352E-01  4.770890931580E-01  4.828141622759E-01  4.886079322232E-01
  4.944712274099E-01  5.004048821388E-01  5.064097407245E-01  5.124866576132E-01
  5.186364975046E-01  5.248601354746E-01  5.311584571003E-01  5.375323585855E-01
  5.439827468885E-01  5.505105398512E-01  5.571166663294E-01  5.638020663254E-01
  5.705676911213E-01  5.774145034147E-01  5.843434774557E-01  5.913555991852E-01
  5.984518663754E-01  6.056332887719E-01  6.129008882372E-01  6.202556988960E-01
  6.276987672828E-01  6.352311524901E-01  6.428539263200E-01  6.505681734359E-01
  6.583749915171E-01  6.662754914153E-01  6.742707973123E-01  6.823620468800E-01
  6.905503914426E-01  6.988369961399E-01  7.072230400936E-01  7.157097165747E-01
  7.242982331736E-01  7.329898119717E-01  7.417856897153E-01  7.506871179919E-01
  7.596953634078E-01  7.688117077687E-01  7.780374482620E-01  7.873738976411E-01
  7.968223844128E-01  8.063842530257E-01  8.160608640621E-01  8.258535944308E-01
  8.357638375640E-01  8.457930036147E-01  8.559425196581E-01  8.662138298940E-01
  8.766083958527E-01  8.871276966030E-01  8.977732289622E-01  9.085465077098E-01
  9.194490658023E-01  9.304824545919E-01  9.416482440470E-01  9.529480229756E-01
  9.643833992513E-01  9.759560000423E-01  9.876674720428E-01  9.995194817073E-01
  1.011513715488E+00  1.023651880074E+00  1.035935702635E+00  1.048366931066E+00
  1.060947334239E+00  1.073678702250E+00  1.086562846677E+00  1.099601600837E+00
  1.112796820047E+00  1.126150381888E+00  1.139664186470E+00  1.153340156708E+00
  1.167180238588E+00  1.181186401451E+00  1.195360638269E+00  1.209704965928E+00
  1.224221425519E+00  1.238912082625E+00  1.253779027617E+00  1.268824375948E+00
  1.284050268460E+00  1.299458871681E+00  1.315052378141E+00  1.330833006679E+00
  1.346803002759E+00  1.362964638792E+00  1.379320214458E+00  1.395872057031E+00
  1.412622521716E+00  1.429573991976E+00  1.446728879880E+00  1.464089626439E+00
  1.481658701956E+00  1.499438606379E+00  1.517431869656E+00  1.535641052092E+00
  1.554068744717E+00  1.572717569653E+00  1.591590180489E+00  1.610689262655E+00
  1.630017533807E+00  1.649577744213E+00  1.669372677143E+00  1.689405149269E+00
  1.709678011060E+00  1.730194147193E+00  1.750956476959E+00  1.771967954683E+00
  1.793231570139E+00  1.814750348981E+00  1.836527353168E+00  1.858565681406E+00
  1.880868469583E+00  1.903438891218E+00  1.926280157913E+00  1.949395519808E+00
  1.972788266046E+00  1.996461725238E+00  2.020419265941E+00  2.044664297132E+00
  2.069200268698E+00  2.094030671922E+00  2.119159039985E+00  2.144588948465E+00
  2.170324015847E+00  2.196367904037E+00  2.222724318885E+00  2.249397010712E+00
  2.276389774840E+00  2.303706452138E+00  2.331350929564E+00  2.359327140719E+00
  2.387639066408E+00  2.416290735204E+00  2.445286224027E+00  2.474629658715E+00
  2.504325214620E+00  2.534377117195E+00  2.564789642602E+00  2.595567118313E+00
  2.626713923733E+00  2.658234490817E+00  2.690133304707E+00  2.722414904364E+00
  2.755083883216E+00  2.788144889815E+00  2.821602628492E+00  2.855461860034E+00
  2.889727402355E+00  2.924404131183E+00  2.959496980757E+00  2.995010944526E+00
  3.030951075861E+00  3.067322488771E+00  3.104130358636E+00  3.141379922940E+00
  3.179076482015E+00  3.217225399799E+00  3.255832104597E+00  3.294902089852E+00
  3.334440914930E+00  3.374454205909E+00  3.414947656380E+00  3.455927028257E+00
  3.497398152596E+00  3.539366930427E+00  3.581839333592E+00  3.624821405595E+00
  3.668319262462E+00  3.712339093612E+00  3.756887162735E+00  3.801969808688E+00
  3.847593446392E+00  3.893764567749E+00  3.940489742562E+00  3.987775619473E+00
  4.035628926907E+00  4.084056474029E+00  4.133065151718E+00  4.182661933538E+00
  4.232853876741E+00  4.283648123262E+00  4.335051900741E+00  4.387072523550E+00
  4.439717393832E+00  4.492994002558E+00  4.546909930589E+00  4.601472849756E+00
  4.656690523953E+00  4.712570810241E+00  4.769121659963E+00  4.826351119883E+00
  4.884267333322E+00  4.942878541322E+00  5.002193083817E+00  5.062219400823E+00
  5.122966033633E+00  5.184441626037E+00  5.246654925549E+00  5.309614784656E+00
  5.373330162072E+00  5.437810124016E+00  5.503063845505E+00  5.569100611651E+00
  5.635929818990E+00  5.703560976818E+00  5.772003708540E+00  5.841267753043E+00
  5.911362966079E+00  5.982299321672E+00  6.054086913532E+00  6.126735956495E+00
  6.200256787972E+00  6.274659869428E+00  6.349955787861E+00  6.426155257316E+00
  6.503269120403E+00  6.581308349848E+00  6.660284050046E+00  6.740207458647E+00
  6.821089948151E+00  6.902943027529E+00  6.985778343859E+00  7.069607683985E+00
  7.154442976193E+00  7.240296291907E+00  7.327179847410E+00  7.415106005579E+00
  7.504087277646E+00  7.594136324978E+00  7.685265960878E+00  7.777489152408E+00
  7.870819022237E+00  7.965268850504E+00  8.060852076710E+00  8.157582301630E+00
  8.255473289250E+00  8.354538968721E+00  8.454793436346E+00  8.556250957582E+00
  8.658925969073E+00  8.762833080702E+00  8.867987077670E+00  8.974402922602E+00
  9.082095757673E+00  9.191080906765E+00  9.301373877647E+00  9.412990364178E+00
  9.525946248549E+00  9.640257603531E+00  9.755940694773E+00  9.873011983111E+00
  9.991488126908E+00  1.011138598443E+01  1.023272261624E+01  1.035551528764E+01
  1.047978147109E+01  1.060553884874E+01  1.073280531493E+01  1.086159897871E+01
  1.099193816645E+01  1.112384142445E+01  1.125732752154E+01  1.139241545180E+01
  1.152912443722E+01  1.166747393047E+01  1.180748361764E+01  1.194917342105E+01
  1.209256350210E+01  1.223767426413E+01  1.238452635529E+01  1.253314067156E+01
  1.268353835962E+01  1.283574081993E+01  1.298976970977E+01  1.314564694629E+01
  1.330339470964E+01  1.346303544616E+01  1.362459187151E+01  1.378808697397E+01
  1.395354401766E+01  1.412098654587E+01  1.429043838442E+01  1.446192364504E+01
  1.463546672878E+01  1.481109232952E+01  1.498882543748E+01  1.516869134272E+01
  1.535071563884E+01  1.553492422650E+01  1.572134331722E+01  1.590999943703E+01
  1.610091943027E+01  1.629413046344E+01  1.648966002900E+01  1.668753594935E+01
  1.688778638074E+01  1.709043981731E+01  1.729552509511E+01  1.750307139626E+01
  1.771310825301E+01  1.792566555205E+01  1.814077353867E+01  1.835846282113E+01
  1.857876437499E+01  1.880170954749E+01  1.902733006206E+01  1.925565802280E+01
  1.948672591908E+01  1.972056663011E+01  1.995721342967E+01  2.019669999082E+01
  2.043906039071E+01  2.068432911540E+01  2.093254106479E+01  2.118373155756E+01
  2.143793633625E+01  2.169519157229E+01  2.195553387116E+01  2.221900027761E+01
  2.248562828094E+01  2.275545582031E+01  2.302852129016E+01  2.330486354564E+01
  2.358452190819E+01  2.386753617108E+01  2.415394660514E+01  2.444379396440E+01
  2.473711949197E+01  2.503396492588E+01  2.533437250499E+01  2.563838497505E+01
  2.594604559475E+01  2.625739814188E+01  2.657248691959E+01  2.689135676262E+01
  2.721405304377E+01  2.754062168030E+01  2.787110914046E+01  2.820556245015E+01
  2.854402919955E+01  2.888655754994E+01  2.923319624054E+01  2.958399459543E+01
  2.993900253057E+01  3.029827056094E+01  3.066184980767E+01  3.102979200536E+01
  3.140214950943E+01  3.177897530354E+01  3.216032300718E+01  3.254624688327E+01
  3.293680184587E+01  3.333204346802E+01  3.373202798964E+01  3.413681232551E+01
  3.454645407342E+01  3.496101152230E+01  3.538054366057E+01  3.580511018449E+01
  3.623477150671E+01  3.666958876479E+01  3.710962382997E+01  3.755493931593E+01
  3.800559858772E+01  3.846166577077E+01  3.892320576002E+01  3.939028422914E+01
  3.986296763989E+01  4.034132325157E+01  4.082541913059E+01  4.131532416015E+01
  4.181110805007E+01  4.231284134668E+01  4.282059544284E+01  4.333444258815E+01
  4.385445589921E+01  4.438070937000E+01
</grid-data>
</grid>
<valence-charge total-charge="17" is-unscreening-charge="yes"
 rescaled-to-z-pseudo="no">
<radfunc>
<data npts="458">
  1.328274692624E-02  1.329347329881E-02  1.333088358799E-02  1.340711987143E-02
  1.354274909095E-02  1.377351520333E-02  1.415386631716E-02  1.470796162369E-02
  1.548194819885E-02  1.658605571850E-02  1.809021496520E-02  2.003657128259E-02
  2.282078071670E-02  2.623192562153E-02  3.015156918240E-02  3.529870848503E-02
  4.206155148232E-02  4.929493621831E-02  5.837920031846E-02  6.978706092477E-02
  8.410963250274E-02  9.815638448864E-02  1.149969480575E-01  1.351785600389E-01
  1.593517803061E-01  1.882886244919E-01  2.229034119766E-01  2.532336129436E-01
  2.878871713341E-01  3.274579104752E-01  3.726154302069E-01  4.241133672674E-01
  4.827982077230E-01  5.496185928686E-01  6.256350252593E-01  7.120298377411E-01
  8.101172339872E-01  9.213531424292E-01  1.003602237524E+00  1.092921247732E+00
  1.189857844827E+00  1.294992953677E+00  1.408941322220E+00  1.532351828369E+00
  1.665907467182E+00  1.810324954521E+00  1.966353875975E+00  2.134775301908E+00
  2.316399781475E+00  2.512064620215E+00  2.722630337729E+00  2.948976194174E+00
  3.191994667061E+00  3.452584753634E+00  3.731643969240E+00  4.030058909114E+00
  4.348694240569E+00  4.688379995286E+00  5.049897038121E+00  5.433960600463E+00
  5.841201783617E+00  6.272146962135E+00  6.727195049493E+00  7.206592630301E+00
  7.710407015470E+00  8.238497340588E+00  8.790483904214E+00  9.075246427780E+00
  9.365716032743E+00  9.661763594041E+00  9.963238862362E+00  1.026996940391E+01
  1.058175954661E+01  1.089838933909E+01  1.121961352955E+01  1.154516057207E+01
  1.187473166858E+01  1.220799985552E+01  1.254460914467E+01  1.288417372823E+01
  1.322627725919E+01  1.357047221822E+01  1.391627937912E+01  1.426318738554E+01
  1.461065245183E+01  1.495809820162E+01  1.530491565803E+01  1.565046339965E+01
  1.599406789667E+01  1.633502404152E+01  1.667259588860E+01  1.700601761716E+01
  1.733449473116E+01  1.765720550964E+01  1.797330272001E+01  1.828191560602E+01
  1.858215216095E+01  1.887310169507E+01  1.915383770496E+01  1.942342105008E+01
  1.968090344000E+01  1.992533123321E+01  2.015574954540E+01  2.037120666240E+01
  2.057075874926E+01  2.075347484355E+01  2.091844211690E+01  2.106477138480E+01
  2.119160284001E+01  2.129811198082E+01  2.138351570012E+01  2.144707849693E+01
  2.148811876690E+01  2.150601512343E+01  2.150021269655E+01  2.147022935179E+01
  2.141566176742E+01  2.133619130399E+01  2.123158959710E+01  2.110172380112E+01
  2.094656140960E+01  2.076617457656E+01  2.056074386246E+01  2.033056132914E+01
  2.007603290985E+01  1.979767998310E+01  1.949614008375E+01  1.917216668984E+01
  1.882662803117E+01  1.846050487384E+01  1.807488724513E+01  1.767097007426E+01
  1.725004773767E+01  1.681350751101E+01  1.636282194561E+01  1.589954020301E+01
  1.542527839785E+01  1.494170901693E+01  1.445054949923E+01  1.395355007923E+01
  1.345248101203E+01  1.294911931490E+01  1.244523517365E+01  1.194257817503E+01
  1.144286353647E+01  1.094775851211E+01  1.045886915875E+01  9.977727646864E+00
  9.505780299385E+00  9.044376535336E+00  8.594758885395E+00  8.158054232967E+00
  7.735266416956E+00  7.327270311490E+00  6.934807473826E+00  6.558483424791E+00
  6.198766597161E+00  5.855988956875E+00  5.530348270777E+00  5.221911963397E+00
  4.930622475096E+00  4.656304005460E+00  4.398670500089E+00  4.157334716568E+00
  3.931818187259E+00  3.721561883056E+00  3.525937373918E+00  3.344258279040E+00
  3.175791802009E+00  3.019770154022E+00  2.875401680908E+00  2.741881526705E+00
  2.618401687165E+00  2.504160329939E+00  2.398370283347E+00  2.300266621513E+00
  2.209113299279E+00  2.124208814651E+00  2.044890898739E+00  1.970540252564E+00
  1.900583366100E+00  1.834494467357E+00  1.771796657979E+00  1.712062297094E+00
  1.654912697368E+00  1.600017196965E+00  1.547091669375E+00  1.495896530428E+00
  1.446234299503E+00  1.397946770465E+00  1.350911848132E+00  1.305040108390E+00
  1.260269894248E+00  1.216557441581E+00  1.173865435297E+00  1.132160361545E+00
  1.091413159268E+00  1.051597835982E+00  1.012691843757E+00  9.746767899167E-01
  9.375381093546E-01  9.012643073878E-01  8.658465788655E-01  8.312783349175E-01
  7.975547829050E-01  7.646725380220E-01  7.326292680250E-01  7.014233705715E-01
  6.710536824243E-01  6.415192196133E-01  6.128189474932E-01  5.849515795135E-01
  5.579154033606E-01  5.317081331510E-01  5.063267861258E-01  4.817675823842E-01
  4.580258659692E-01  4.350960459384E-01  4.129715556035E-01  3.916448284514E-01
  3.711072891599E-01  3.513493581632E-01  3.323604682687E-01  3.141290918765E-01
  2.966427774121E-01  2.798881936481E-01  2.638511806611E-01  2.485168062474E-01
  2.338694266989E-01  2.198927509204E-01  2.065699069543E-01  1.938835100531E-01
  1.818157315406E-01  1.703483677537E-01  1.594629084580E-01  1.491406041950E-01
  1.393625320869E-01  1.301096596972E-01  1.213629066016E-01  1.131032033848E-01
  1.053115478258E-01  9.796905808489E-02  9.105702274351E-02  8.455694758850E-02
  7.845059906087E-02  7.272004432031E-02  6.734768790016E-02  6.231630494953E-02
  5.760907107890E-02  5.320958884275E-02  4.910191090875E-02  4.527055997805E-02
  4.170054553507E-02  3.837737751871E-02  3.528707701978E-02  3.241618412153E-02
  2.975176301202E-02  2.728140450778E-02  2.499322613787E-02  2.287586994633E-02
  2.091849817811E-02  1.911078701920E-02  1.744291856589E-02  1.590557120004E-02
  1.448990854806E-02  1.318756719971E-02  1.199064335987E-02  1.089167860186E-02
  9.883644884806E-03  8.959928990156E-03  8.114316523984E-03  7.340975622473E-03
  6.634440487815E-03  5.989594871303E-03  5.401655609532E-03  4.866156308645E-03
  4.378931260622E-03  3.936099664838E-03  3.534050217657E-03  3.169426122754E-03
  2.839110565345E-03  2.540212684513E-03  2.270054069538E-03  2.026155798524E-03
  1.806226030731E-03  1.608148157926E-03  1.429969514664E-03  1.269890642828E-03
  1.126255101851E-03  9.975398128368E-04  8.823459222712E-04  7.793901690440E-04
  6.874967370961E-04  6.055895750636E-04  5.326851637534E-04  4.678857120893E-04
  4.103727622493E-04  3.594011850089E-04  3.142935467603E-04  2.744348302466E-04
  2.392674916849E-04  2.082868376267E-04  1.810367055852E-04  1.571054331264E-04
  1.361221007646E-04  1.177530346123E-04  1.016985552967E-04  8.768996018639E-05
  7.548672645498E-05  6.487392296354E-05  5.565981936105E-05  4.767368120110E-05
  4.076374024794E-05  3.479532950835E-05  2.964917287938E-05  2.521981965092E-05
  2.141421444965E-05  1.815039355984E-05  1.535629890825E-05  1.296870135622E-05
  1.093222530228E-05  9.198466962611E-06  7.725199063910E-06  6.475655052743E-06
  5.417886294893E-06  4.524186107015E-06  3.770574828469E-06  3.136340502127E-06
  2.603630087360E-06  2.157086474631E-06  1.783526907705E-06  1.471658744926E-06
  1.211828804220E-06  9.958028364598E-07  8.165719576763E-07  6.681831418900E-07
  5.455911324859E-07  4.445293709821E-07  3.613977675999E-07  2.931653483768E-07
  2.372860088810E-07  1.916257852482E-07  1.544002197138E-07  1.241205505934E-07
  9.954759636499E-08  7.965233078499E-08  6.358226151219E-08  5.063282922484E-08
  4.022313842575E-08  3.187541575620E-08  2.519766739938E-08  1.986907474858E-08
  1.562772762274E-08  1.226034758531E-08  9.593700983966E-09  7.487442766464E-09
  5.828168497456E-09  4.524483817373E-09  3.502928329927E-09  2.704615021717E-09
  2.082467213937E-09  1.598953094382E-09  1.224233416451E-09  9.346512869562E-10
  7.115043722370E-10  5.400495797171E-10  4.086985405204E-10  3.083692243807E-10
  2.319649346002E-10  1.739569113894E-10  1.300509509976E-10  9.692194315321E-11
  7.200314283406E-11  5.331941304645E-11  3.935567979739E-11  2.895349479908E-11
  2.122996221521E-11  1.551440125374E-11  1.129902771731E-11  8.200679554113E-12
  5.931213393603E-12  4.274685706434E-12  3.069824289472E-12  2.196610505116E-12
  1.566044446114E-12  1.112365827128E-12  7.871627145610E-13  5.549262385295E-13
  3.897087644224E-13  2.726209967577E-13  1.899644955178E-13  1.318436210810E-13
  9.113781897565E-14  6.274367930156E-14  4.301816966949E-14  2.937128550156E-14
  1.996922812089E-14  1.351900851397E-14  9.112788952605E-15  6.115867663540E-15
  4.086412932396E-15  2.718195230539E-15  1.799905905211E-15  1.186385854227E-15
  7.783681698292E-16  5.082797123443E-16  3.303348777975E-16  2.136559894246E-16
  1.375179649593E-16  8.807688359505E-17  5.613021142405E-17  3.559077299201E-17
  2.245213388243E-17  1.409062699754E-17  8.796873564958E-18  5.462913241722E-18
  3.374351485561E-18  2.072994390899E-18  1.266540491712E-18  7.695274439057E-19
  4.649258701542E-19  2.792980035513E-19  1.616533069699E-19  9.609292657145E-20
  5.678299549968E-20  3.335271789947E-20  0.000000000000E+00  0.000000000000E+00
  0.000000000000E+00  0.000000000000E+00  0.000000000000E+00  0.000000000000E+00
  0.000000000000E+00  0.000000000000E+00  0.000000000000E+00  0.000000000000E+00
  0.000000000000E+00  0.000000000000E+00  0.000000000000E+00  0.000000000000E+00
  0.000000000000E+00  0.000000000000E+00  0.000000000000E+00  0.000000000000E+00
  0.000000000000E+00  0.000000000000E+00  0.000000000000E+00  0.000000000000E+00
  0.000000000000E+00  0.000000000000E+00  0.000000000000E+00  0.000000000000E+00
  0.000000000000E+00  0.000000000000E+00  0.000000000000E+00  0.000000000000E+00
  0.000000000000E+00  0.000000000000E+00
</data>
</radfunc>
</valence-charge>
<pseudocore-charge matching-radius="0.787373897641"
 number-of-continuous-derivatives="4">
<annotation model-charge-form="Teter function with specified parameters" />
<radfunc>
<data npts="291">
  1.892230487280E+02  1.892075720639E+02  1.891598182440E+02  1.890807777300E+02
  1.889708965094E+02  1.888264358548E+02  1.886423578975E+02  1.884316212015E+02
  1.881947321255E+02  1.879185645706E+02  1.876073830595E+02  1.872692783347E+02
  1.868608379056E+02  1.864344728251E+02  1.860087583975E+02  1.855186599804E+02
  1.849546406644E+02  1.844203497086E+02  1.838200999686E+02  1.831459952127E+02
  1.823892601234E+02  1.817178711124E+02  1.809819290153E+02  1.801755207142E+02
  1.792922530182E+02  1.783252269211E+02  1.772670135818E+02  1.764087327126E+02
  1.754911060756E+02  1.745103746434E+02  1.734625942577E+02  1.723436350833E+02
  1.711491827663E+02  1.698747416285E+02  1.685156402736E+02  1.670670400205E+02
  1.655239466342E+02  1.638812258681E+02  1.627281396384E+02  1.615268597569E+02
  1.602757896794E+02  1.589733222702E+02  1.576178448072E+02  1.562077446133E+02
  1.547414153593E+02  1.532172640844E+02  1.516337189812E+02  1.499892379933E+02
  1.482823182696E+02  1.465115065218E+02  1.446754103274E+02  1.427727104155E+02
  1.408021739730E+02  1.387626689973E+02  1.366531797195E+02  1.344728231086E+02
  1.322208664595E+02  1.298967460528E+02  1.275000868594E+02  1.250307232448E+02
  1.224887206072E+02  1.198743978590E+02  1.171883506358E+02  1.144314750848E+02
  1.116049920518E+02  1.087104714482E+02  1.057498565406E+02  1.042454789795E+02
  1.027254878578E+02  1.011902416176E+02  9.964012636857E+01  9.807555654411E+01
  9.649697552838E+01  9.490485625154E+01  9.329970174810E+01  9.168204567435E+01
  9.005245278007E+01  8.841151932974E+01  8.675987346823E+01  8.509817552572E+01
  8.342711825656E+01  8.174742700651E+01  8.005985980259E+01  7.836520735997E+01
  7.666429299978E+01  7.495797247198E+01  7.324713367729E+01  7.153269628199E+01
  6.981561121976E+01  6.809686007442E+01  6.637745433769E+01  6.465843453630E+01
  6.294086922284E+01  6.122585382488E+01  5.951450934761E+01  5.780798092497E+01
  5.610743621533E+01  5.441406363770E+01  5.272907044536E+01  5.105368063437E+01
  4.938913268508E+01  4.773667713542E+01  4.609757398616E+01  4.447308993846E+01
  4.286449546598E+01  4.127306172428E+01  3.970005730174E+01  3.814674481769E+01
  3.661437737444E+01  3.510419487177E+01  3.361742019372E+01  3.215525527932E+01
  3.071887709032E+01  2.930943349099E+01  2.792803905668E+01  2.657577082942E+01
  2.525366404109E+01  2.396270782593E+01  2.270384094632E+01  2.147794755722E+01
  2.028585303635E+01  1.912831990882E+01  1.800604389612E+01  1.691965012068E+01
  1.586968949847E+01  1.485663535261E+01  1.388088028183E+01  1.294273331771E+01
  1.204241740488E+01  1.118006723769E+01  1.035572748638E+01  9.569351444519E+00
  8.820800127893E+00  8.109841853069E+00  7.436152321208E+00  6.799315229831E+00
  6.198823431612E+00  5.634080655316E+00  5.104403799460E+00  4.609025804254E+00
  4.147099101954E+00  3.717699639837E+00  3.319831463767E+00  2.952431843707E+00
  2.614376915735E+00  2.304487808088E+00  2.021537211680E+00  1.764256348524E+00
  1.531342284560E+00  1.321465526789E+00  1.133277838409E+00  9.654201999885E-01
  8.165308397619E-01  6.852532520214E-01  5.702441194661E-01  4.701810533733E-01
  3.837700647232E-01  3.097526800459E-01  2.469126178588E-01  1.940819451981E-01
  1.501466389670E-01  1.140514836224E-01  8.480424509468E-02  6.147907069223E-02
  4.321907599345E-02  2.923809220437E-02  1.882156096940E-02  1.132657791559E-02
  6.181101003865E-03  2.882354728164E-03  9.944759898722E-04  1.454617008336E-04
  2.349143954630E-05  3.727104064411E-04  9.885681096781E-04  1.712816302497E-03
  2.428275366206E-03  3.053481324090E-03  3.537325785463E-03  3.853798244108E-03
  3.996934275288E-03  3.976064378582E-03  3.811446698629E-03  3.530352931987E-03
  3.163660813333E-03  2.742989184214E-03  2.298393382498E-03  1.856620214546E-03
  1.439903786950E-03  1.065266690906E-03  7.442761354108E-04  4.831922406102E-04
  2.834363595158E-04  1.423013958249E-04  5.382387078936E-05  9.739026032408E-06
  4.454011243562E-07  1.591376730307E-05  4.648651718626E-05  8.352692442152E-05
  1.198922857487E-04  1.502199447824E-04  1.710296462328E-04  1.806586873611E-04
  1.790571215076E-04  1.674781835648E-04  1.481037146100E-04  1.236454754600E-04
  9.696093882084E-05  7.071678869630E-05  4.712553219465E-05  2.777114194944E-05
  1.352942996867E-05  4.578889727931E-06  4.889754603807E-07  3.660249581283E-07
  3.032866945326E-06  7.216897151425E-06  1.172305161741E-05  1.557232377145E-05
  1.809264882885E-05  1.895628290655E-05  1.816528360548E-05  1.599340065977E-05
  1.289777687152E-05  9.416739321866E-06  6.070341564309E-06  3.278268590053E-06
  1.305656132143E-06  2.420117632472E-07  0.000000000000E+00  0.000000000000E+00
  0.000000000000E+00  0.000000000000E+00  0.000000000000E+00  0.000000000000E+00
  0.000000000000E+00  0.000000000000E+00  0.000000000000E+00  0.000000000000E+00
  0.000000000000E+00  0.000000000000E+00  0.000000000000E+00  0.000000000000E+00
  0.000000000000E+00  0.000000000000E+00  0.000000000000E+00  0.000000000000E+00
  0.000000000000E+00  0.000000000000E+00  0.000000000000E+00  0.000000000000E+00
  0.000000000000E+00  0.000000000000E+00  0.000000000000E+00  0.000000000000E+00
  0.000000000000E+00  0.000000000000E+00  0.000000000000E+00  0.000000000000E+00
  0.000000000000E+00  0.000000000000E+00  0.000000000000E+00  0.000000000000E+00
  0.000000000000E+00  0.000000000000E+00  0.000000000000E+00  0.000000000000E+00
  0.000000000000E+00  0.000000000000E+00  0.000000000000E+00  0.000000000000E+00
  0.000000000000E+00  0.000000000000E+00  0.000000000000E+00  0.000000000000E+00
  0.000000000000E+00  0.000000000000E+00  0.000000000000E+00  0.000000000000E+00
  0.000000000000E+00  0.000000000000E+00  0.000000000000E+00  0.000000000000E+00
  0.000000000000E+00  0.000000000000E+00  0.000000000000E+00  0.000000000000E+00
  0.000000000000E+00  0.000000000000E+00  0.000000000000E+00
</data>
</radfunc>
</pseudocore-charge>
<semilocal-potentials set="scalar_relativistic">
<slps n="5" l="s" rc="1.97278826605">
<radfunc>
<data npts="291">
  1.761717304616E+01  1.760607901708E+01  1.757188344938E+01  1.751540161037E+01
  1.743712368864E+01  1.733463874330E+01  1.720474580385E+01  1.705699312804E+01
  1.689210525313E+01  1.670146375707E+01  1.648867167774E+01  1.625986015390E+01
  1.598671609595E+01  1.570532976351E+01  1.542811588412E+01  1.511351415079E+01
  1.475733808452E+01  1.442559839765E+01  1.405931232364E+01  1.365582693077E+01
  1.321250996096E+01  1.282745959024E+01  1.241404503608E+01  1.197112112154E+01
  1.149766585406E+01  1.099281454519E+01  1.045589634235E+01  1.003189002329E+01
  9.589506910625E+00  9.128755262136E+00  8.649747420537E+00  8.152708413399E+00
  7.637983917080E+00  7.106047362533E+00  6.557505956227E+00  5.993105392143E+00
  5.413733041830E+00  4.820419429479E+00  4.417705454196E+00  4.009696373740E+00
  3.596801852740E+00  3.179458040933E+00  2.758126657580E+00  2.333293893094E+00
  1.905469132840E+00  1.475183510499E+00  1.042988300801E+00  6.094531636642E-01
  1.751642538982E-01 -2.592777874666E-01 -6.932599425794E-01 -1.126159007969E+00
 -1.557343847720E+00 -1.986177688334E+00 -2.412020434970E+00 -2.834230989218E+00
 -3.252169549550E+00 -3.665199877036E+00 -4.072691510904E+00 -4.474021920999E+00
 -4.868578587096E+00 -5.255760998429E+00 -5.634982570500E+00 -6.005672480383E+00
 -6.367277426067E+00 -6.719263319963E+00 -7.061116931420E+00 -7.228089846462E+00
 -7.392347497778E+00 -7.553832313687E+00 -7.712488328152E+00 -7.868261232549E+00
 -8.021098428550E+00 -8.170949082417E+00 -8.317764180985E+00 -8.461496589675E+00
 -8.602101112823E+00 -8.739534556674E+00 -8.873755795365E+00 -9.004725840204E+00
 -9.132407912622E+00 -9.256767520961E+00 -9.377772541745E+00 -9.495393305250E+00
 -9.609602686058E+00 -9.720376198666E+00 -9.827692098337E+00 -9.931531487490E+00
 -1.003187842767E+01 -1.012872005725E+01 -1.022204671488E+01 -1.031185206864E+01
 -1.039813325080E+01 -1.048089099797E+01 -1.056012979641E+01 -1.063585803204E+01
 -1.070808814461E+01 -1.077683678545E+01 -1.084212497802E+01 -1.090397828011E+01
 -1.096242694683E+01 -1.101750609284E+01 -1.106925585245E+01 -1.111772153569E+01
 -1.116295377857E+01 -1.120500868514E+01 -1.124394795900E+01 -1.127983902151E+01
 -1.131275511367E+01 -1.134277537858E+01 -1.136998492082E+01 -1.139447483911E+01
 -1.141634222841E+01 -1.143569014705E+01 -1.145262754486E+01 -1.146726914773E+01
 -1.147973529414E+01 -1.149015171908E+01 -1.149864928104E+01 -1.150536362754E+01
 -1.151043479514E+01 -1.151400674011E+01 -1.151622679606E+01 -1.151724505557E+01
 -1.151721367327E+01 -1.151628608835E+01 -1.151461616530E+01 -1.151235725247E+01
 -1.150966115884E+01 -1.150667705041E+01 -1.150355026892E+01 -1.150042107660E+01
 -1.149742333228E+01 -1.149468310609E+01 -1.149231724151E+01 -1.149043187649E+01
 -1.148912093790E+01 -1.148846462707E+01 -1.148852791827E+01 -1.148935909652E+01
 -1.149098836647E+01 -1.149342656970E+01 -1.149666405327E+01 -1.150066973786E+01
 -1.150539043771E+01 -1.151075048604E+01 -1.151665171811E+01 -1.152297385715E+01
 -1.152957533529E+01 -1.153629456172E+01 -1.154295162187E+01 -1.154935035617E+01