<?xml version="1.0" encoding="UTF-8" ?>
<psml version="1.1" energy_unit="hartree" length_unit="bohr"
 uuid="b47d4dc0-471b-11e8-59f7-6198dd7f6030"
 xmlns="http://esl.cecam.org/PSML/ns/1.1">
<provenance creator="ONCVPSP-3.3.0+psml-3.3.0-73 (fully-relativistic)"
 date="2018-04-23">
<annotation action="semilocal-pseudopotential-generation"
 action-cont="projectors-generation" />
<input-file name="oncvpsp-input">
<![CDATA[# atsym z nc nv iexc psfile
I 53 9 2 4 both
# n l f
1 0 2.0
2 0 2.0
2 1 6.0
3 0 2.0
3 1 6.0
3 2 10.0
4 0 2.0
4 1 6.0
4 2 10.0
5 0 2.0
5 1 5.0
# lmax
2
# l rc ep ncon nbas qcut
0 2.0 0.0 4 7 3.7
1 2.15 0.0 4 7 4.0
2 2.25 0.1 4 8 4.6
# lloc lpopt rc5 dvloc0
4 5 2.0 0.0
# l nproj debl
0 2 2.2
1 2 2.5
2 2 3.0
# icmod fcfact
3 4 1.34
# epsh1 epsh2 depsh
-12.0 12.0 0.02
# rlmax drl
6.0 0.01
 0
]]>
</input-file>
</provenance>
<pseudo-atom-spec atomic-label="I" atomic-number="53" z-pseudo="7"
 flavor="Hamann&apos;s oncvpsp" relativity="dirac" spin-dft="no"
 core-corrections="yes">
<annotation pseudo-energy="-11.5726500281" />
<exchange-correlation>
<annotation oncvpsp-xc-code="4" oncvpsp-xc-type="GGA -- Perdew-Burke-Ernzerhof" />
<libxc-info number-of-functionals="2">
<functional name="Perdew, Burke &amp; Ernzerhof (GGA)" type="exchange" id="101" />
<functional name="Perdew, Burke &amp; Ernzerhof (GGA)" type="correlation"
 id="130" />
</libxc-info>
</exchange-correlation>
<valence-configuration total-valence-charge="7">
<shell n="5" l="s" occupation="2" />
<shell n="5" l="p" occupation="5" />
</valence-configuration>
</pseudo-atom-spec>
<grid npts="458">
<annotation type="sampled from oncvpsp log grid"
 recipe="r(i:1..N) = r1*exp(a*(i-1)) + r=0; resampled"
 recipe-cont="r1: scale; a: step" scale="0.943396226415E-05"
 step="0.119285708653E-01" delta="0.500000000000E-02" rmax="44.3807093700" />
<grid-data>
  0.000000000000E+00  5.007762362137E-03  1.012264367117E-02  1.518557966799E-02
  2.021918633661E-02  2.536257896747E-02  3.069598770929E-02  3.584497442415E-02
  4.087087281817E-02  4.604887635970E-02  5.126767823703E-02  5.640112283188E-02
  6.204858043287E-02  6.745209415252E-02  7.245669368045E-02  7.783260883245E-02
  8.360738932391E-02  8.874568074888E-02  9.419975812269E-02  9.998902882364E-02
  1.061340929567E-01  1.113209650746E-01  1.167613244709E-01  1.224675593053E-01
  1.284526631584E-01  1.347302646194E-01  1.413146583191E-01  1.464632781427E-01
  1.517994813805E-01  1.573301023957E-01  1.630622245526E-01  1.690031892890E-01
  1.751606055187E-01  1.815423593765E-01  1.881566243185E-01  1.950118715903E-01
  2.021168810766E-01  2.094807525460E-01  2.145384558354E-01  2.197182723131E-01
  2.250231502799E-01  2.304561092202E-01  2.360202415212E-01  2.417187142325E-01
  2.475547708689E-01  2.535317332568E-01  2.596530034246E-01  2.659220655392E-01
  2.723424878896E-01  2.789179249172E-01  2.856521192964E-01  2.925489040647E-01
  2.996122048045E-01  3.068460418773E-01  3.142545327123E-01  3.218418941502E-01
  3.296124448425E-01  3.375706077108E-01  3.457209124634E-01  3.540679981739E-01
  3.626166159218E-01  3.713716314966E-01  3.803380281675E-01  3.895209095195E-01
  3.989255023590E-01  4.085571596879E-01  4.184213637514E-01  4.234424201164E-01
  4.285237291578E-01  4.336660139077E-01  4.388700060746E-01  4.441364461475E-01
  4.494660835013E-01  4.548596765033E-01  4.603179926214E-01  4.658418085328E-01
  4.714319102352E-01  4.770890931580E-01  4.828141622759E-01  4.886079322232E-01
  4.944712274099E-01  5.004048821388E-01  5.064097407245E-01  5.124866576132E-01
  5.186364975046E-01  5.248601354746E-01  5.311584571003E-01  5.375323585855E-01
  5.439827468885E-01  5.505105398512E-01  5.571166663294E-01  5.638020663254E-01
  5.705676911213E-01  5.774145034147E-01  5.843434774557E-01  5.913555991852E-01
  5.984518663754E-01  6.056332887719E-01  6.129008882372E-01  6.202556988960E-01
  6.276987672828E-01  6.352311524901E-01  6.428539263200E-01  6.505681734359E-01
  6.583749915171E-01  6.662754914153E-01  6.742707973123E-01  6.823620468800E-01
  6.905503914426E-01  6.988369961399E-01  7.072230400936E-01  7.157097165747E-01
  7.242982331736E-01  7.329898119717E-01  7.417856897153E-01  7.506871179919E-01
  7.596953634078E-01  7.688117077687E-01  7.780374482620E-01  7.873738976411E-01
  7.968223844128E-01  8.063842530257E-01  8.160608640621E-01  8.258535944308E-01
  8.357638375640E-01  8.457930036147E-01  8.559425196581E-01  8.662138298940E-01
  8.766083958527E-01  8.871276966030E-01  8.977732289622E-01  9.085465077098E-01
  9.194490658023E-01  9.304824545919E-01  9.416482440470E-01  9.529480229756E-01
  9.643833992513E-01  9.759560000423E-01  9.876674720428E-01  9.995194817073E-01
  1.011513715488E+00  1.023651880074E+00  1.035935702635E+00  1.048366931066E+00
  1.060947334239E+00  1.073678702250E+00  1.086562846677E+00  1.099601600837E+00
  1.112796820047E+00  1.126150381888E+00  1.139664186470E+00  1.153340156708E+00
  1.167180238588E+00  1.181186401451E+00  1.195360638269E+00  1.209704965928E+00
  1.224221425519E+00  1.238912082625E+00  1.253779027617E+00  1.268824375948E+00
  1.284050268460E+00  1.299458871681E+00  1.315052378141E+00  1.330833006679E+00
  1.346803002759E+00  1.362964638792E+00  1.379320214458E+00  1.395872057031E+00
  1.412622521716E+00  1.429573991976E+00  1.446728879880E+00  1.464089626439E+00
  1.481658701956E+00  1.499438606379E+00  1.517431869656E+00  1.535641052092E+00
  1.554068744717E+00  1.572717569653E+00  1.591590180489E+00  1.610689262655E+00
  1.630017533807E+00  1.649577744213E+00  1.669372677143E+00  1.689405149269E+00
  1.709678011060E+00  1.730194147193E+00  1.750956476959E+00  1.771967954683E+00
  1.793231570139E+00  1.814750348981E+00  1.836527353168E+00  1.858565681406E+00
  1.880868469583E+00  1.903438891218E+00  1.926280157913E+00  1.949395519808E+00
  1.972788266046E+00  1.996461725238E+00  2.020419265941E+00  2.044664297132E+00
  2.069200268698E+00  2.094030671922E+00  2.119159039985E+00  2.144588948465E+00
  2.170324015847E+00  2.196367904037E+00  2.222724318885E+00  2.249397010712E+00
  2.276389774840E+00  2.303706452138E+00  2.331350929564E+00  2.359327140719E+00
  2.387639066408E+00  2.416290735204E+00  2.445286224027E+00  2.474629658715E+00
  2.504325214620E+00  2.534377117195E+00  2.564789642602E+00  2.595567118313E+00
  2.626713923733E+00  2.658234490817E+00  2.690133304707E+00  2.722414904364E+00
  2.755083883216E+00  2.788144889815E+00  2.821602628492E+00  2.855461860034E+00
  2.889727402355E+00  2.924404131183E+00  2.959496980757E+00  2.995010944526E+00
  3.030951075861E+00  3.067322488771E+00  3.104130358636E+00  3.141379922940E+00
  3.179076482015E+00  3.217225399799E+00  3.255832104597E+00  3.294902089852E+00
  3.334440914930E+00  3.374454205909E+00  3.414947656380E+00  3.455927028257E+00
  3.497398152596E+00  3.539366930427E+00  3.581839333592E+00  3.624821405595E+00
  3.668319262462E+00  3.712339093612E+00  3.756887162735E+00  3.801969808688E+00
  3.847593446392E+00  3.893764567749E+00  3.940489742562E+00  3.987775619473E+00
  4.035628926907E+00  4.084056474029E+00  4.133065151718E+00  4.182661933538E+00
  4.232853876741E+00  4.283648123262E+00  4.335051900741E+00  4.387072523550E+00
  4.439717393832E+00  4.492994002558E+00  4.546909930589E+00  4.601472849756E+00
  4.656690523953E+00  4.712570810241E+00  4.769121659963E+00  4.826351119883E+00
  4.884267333322E+00  4.942878541322E+00  5.002193083817E+00  5.062219400823E+00
  5.122966033633E+00  5.184441626037E+00  5.246654925549E+00  5.309614784656E+00
  5.373330162072E+00  5.437810124016E+00  5.503063845505E+00  5.569100611651E+00
  5.635929818990E+00  5.703560976818E+00  5.772003708540E+00  5.841267753043E+00
  5.911362966079E+00  5.982299321672E+00  6.054086913532E+00  6.126735956495E+00
  6.200256787972E+00  6.274659869428E+00  6.349955787861E+00  6.426155257316E+00
  6.503269120403E+00  6.581308349848E+00  6.660284050046E+00  6.740207458647E+00
  6.821089948151E+00  6.902943027529E+00  6.985778343859E+00  7.069607683985E+00
  7.154442976193E+00  7.240296291907E+00  7.327179847410E+00  7.415106005579E+00
  7.504087277646E+00  7.594136324978E+00  7.685265960878E+00  7.777489152408E+00
  7.870819022237E+00  7.965268850504E+00  8.060852076710E+00  8.157582301630E+00
  8.255473289250E+00  8.354538968721E+00  8.454793436346E+00  8.556250957582E+00
  8.658925969073E+00  8.762833080702E+00  8.867987077670E+00  8.974402922602E+00
  9.082095757673E+00  9.191080906765E+00  9.301373877647E+00  9.412990364178E+00
  9.525946248549E+00  9.640257603531E+00  9.755940694773E+00  9.873011983111E+00
  9.991488126908E+00  1.011138598443E+01  1.023272261624E+01  1.035551528764E+01
  1.047978147109E+01  1.060553884874E+01  1.073280531493E+01  1.086159897871E+01
  1.099193816645E+01  1.112384142445E+01  1.125732752154E+01  1.139241545180E+01
  1.152912443722E+01  1.166747393047E+01  1.180748361764E+01  1.194917342105E+01
  1.209256350210E+01  1.223767426413E+01  1.238452635529E+01  1.253314067156E+01
  1.268353835962E+01  1.283574081993E+01  1.298976970977E+01  1.314564694629E+01
  1.330339470964E+01  1.346303544616E+01  1.362459187151E+01  1.378808697397E+01
  1.395354401766E+01  1.412098654587E+01  1.429043838442E+01  1.446192364504E+01
  1.463546672878E+01  1.481109232952E+01  1.498882543748E+01  1.516869134272E+01
  1.535071563884E+01  1.553492422650E+01  1.572134331722E+01  1.590999943703E+01
  1.610091943027E+01  1.629413046344E+01  1.648966002900E+01  1.668753594935E+01
  1.688778638074E+01  1.709043981731E+01  1.729552509511E+01  1.750307139626E+01
  1.771310825301E+01  1.792566555205E+01  1.814077353867E+01  1.835846282113E+01
  1.857876437499E+01  1.880170954749E+01  1.902733006206E+01  1.925565802280E+01
  1.948672591908E+01  1.972056663011E+01  1.995721342967E+01  2.019669999082E+01
  2.043906039071E+01  2.068432911540E+01  2.093254106479E+01  2.118373155756E+01
  2.143793633625E+01  2.169519157229E+01  2.195553387116E+01  2.221900027761E+01
  2.248562828094E+01  2.275545582031E+01  2.302852129016E+01  2.330486354564E+01
  2.358452190819E+01  2.386753617108E+01  2.415394660514E+01  2.444379396440E+01
  2.473711949197E+01  2.503396492588E+01  2.533437250499E+01  2.563838497505E+01
  2.594604559475E+01  2.625739814188E+01  2.657248691959E+01  2.689135676262E+01
  2.721405304377E+01  2.754062168030E+01  2.787110914046E+01  2.820556245015E+01
  2.854402919955E+01  2.888655754994E+01  2.923319624054E+01  2.958399459543E+01
  2.993900253057E+01  3.029827056094E+01  3.066184980767E+01  3.102979200536E+01
  3.140214950943E+01  3.177897530354E+01  3.216032300718E+01  3.254624688327E+01
  3.293680184587E+01  3.333204346802E+01  3.373202798964E+01  3.413681232551E+01
  3.454645407342E+01  3.496101152230E+01  3.538054366057E+01  3.580511018449E+01
  3.623477150671E+01  3.666958876479E+01  3.710962382997E+01  3.755493931593E+01
  3.800559858772E+01  3.846166577077E+01  3.892320576002E+01  3.939028422914E+01
  3.986296763989E+01  4.034132325157E+01  4.082541913059E+01  4.131532416015E+01
  4.181110805007E+01  4.231284134668E+01  4.282059544284E+01  4.333444258815E+01
  4.385445589921E+01  4.438070937000E+01
</grid-data>
</grid>
<valence-charge total-charge="7" is-unscreening-charge="yes"
 rescaled-to-z-pseudo="no">
<radfunc>
<data npts="458">
  1.174342784322E-02  1.175630208572E-02  1.179604410383E-02  1.186188388298E-02
  1.195353822152E-02  1.207425677460E-02  1.222844521943E-02  1.240546464810E-02
  1.260509144705E-02  1.283867386042E-02  1.310297668867E-02  1.339147744902E-02
  1.374184731849E-02  1.410976132508E-02  1.447932941235E-02  1.490753953452E-02
  1.540398995267E-02  1.587789257925E-02  1.641451491953E-02  1.702250317092E-02
  1.771177827667E-02  1.832933105033E-02  1.901279042267E-02  1.976957191899E-02
  2.060799240583E-02  2.153738964873E-02  2.256825872070E-02  2.341505041546E-02
  2.433105405994E-02  2.532231024546E-02  2.639542942730E-02  2.755764896299E-02
  2.881689578568E-02  3.018185516442E-02  3.166204600657E-02  3.326790315000E-02
  3.501086707141E-02  3.690348139831E-02  3.825510158739E-02  3.968371452256E-02
  4.119399375251E-02  4.279090660016E-02  4.447973159187E-02  4.626607660837E-02
  4.815589773038E-02  5.015551874022E-02  5.227165122697E-02  5.451141522760E-02
  5.688236031864E-02  5.939248705395E-02  6.205026862213E-02  6.486467257334E-02
  6.784518243934E-02  7.100181904212E-02  7.434516125639E-02  7.788636595907E-02
  8.163718686527E-02  8.560999191581E-02  8.981777884604E-02  9.427418853107E-02
  9.899351566888E-02  1.039907163316E-01  1.092814118877E-01  1.148818887760E-01
  1.208090935972E-01  1.270806229831E-01  1.337147077094E-01  1.371735735252E-01
  1.407301905391E-01  1.443870049786E-01  1.481464973180E-01  1.520111809775E-01
  1.559836009020E-01  1.600663320189E-01  1.642619775725E-01  1.685731673357E-01
  1.730025556976E-01  1.775528196288E-01  1.822266565246E-01  1.870267819296E-01
  1.919559271444E-01  1.970168367205E-01  2.022122658463E-01  2.075449776306E-01
  2.130177402893E-01  2.186333242442E-01  2.243944991399E-01  2.303040307907E-01
  2.363646780659E-01  2.425791897259E-01  2.489503012199E-01  2.554807314590E-01
  2.621731795771E-01  2.690303216943E-01  2.760548076958E-01  2.832492580413E-01
  2.906162606181E-01  2.981583676520E-01  3.058780926878E-01  3.137779076513E-01
  3.218602400019E-01  3.301274699833E-01  3.385819279763E-01  3.472258919554E-01
  3.560615850450E-01  3.650911731672E-01  3.743167627668E-01  3.837403985925E-01
  3.933640615047E-01  4.031896662732E-01  4.132190593144E-01  4.234540163107E-01
  4.338962396386E-01  4.445473555202E-01  4.554089107957E-01  4.664823692001E-01
  4.777691070074E-01  4.892704078868E-01  5.009874567953E-01  5.129213327100E-01
  5.250729999777E-01  5.374432980400E-01  5.500329292654E-01  5.628424445952E-01
  5.758722266880E-01  5.891224702206E-01  6.025931589844E-01  6.162840393903E-01
  6.301945899825E-01  6.443239865393E-01  6.586710623347E-01  6.732342631229E-01
  6.880115964110E-01  7.030005745926E-01  7.181981515322E-01  7.336006522160E-01
  7.492036951278E-01  7.650021070591E-01  7.809898301334E-01  7.971598209102E-01
  8.135039415417E-01  8.300128430786E-01  8.466758411740E-01  8.634807846035E-01
  8.804139172191E-01  8.974597341781E-01  9.146008335337E-01  9.318177645520E-01
  9.490888744156E-01  9.663901552950E-01  9.836950941079E-01  1.000974527642E+00
  1.018196506077E+00  1.035326168306E+00  1.052325632818E+00  1.069153908243E+00
  1.085766827955E+00  1.102117013431E+00  1.118153871230E+00  1.133823628618E+00
  1.149069412882E+00  1.163831379324E+00  1.178046892676E+00  1.191650766368E+00
  1.204575563500E+00  1.216751962687E+00  1.228109191023E+00  1.238575525279E+00
  1.248078861145E+00  1.256547348765E+00  1.263910091123E+00  1.270097899915E+00
  1.275044101544E+00  1.278685383716E+00  1.280962670987E+00  1.281822015457E+00
  1.281215486773E+00  1.279102043784E+00  1.275448368589E+00  1.270229642574E+00
  1.263430243293E+00  1.255044340913E+00  1.245076373427E+00  1.233541381060E+00
  1.220465182260E+00  1.205884376411E+00  1.189846161950E+00  1.172407962799E+00
  1.153636860983E+00  1.133608838709E+00  1.112407839085E+00  1.090124660663E+00
  1.066855707112E+00  1.042701619117E+00  1.017765821036E+00  9.921530195180E-01
  9.659676950422E-01  9.393126300179E-01  9.122875183562E-01  8.849878683656E-01
  8.575047448839E-01  8.299249938944E-01  8.023305229322E-01  7.747972798504E-01
  7.473947403409E-01  7.201857073751E-01  6.932272848357E-01  6.665725105096E-01
  6.402706506844E-01  6.143669236030E-01  5.889026740212E-01  5.639154084905E-01
  5.394388707066E-01  5.155031293320E-01  4.921346789067E-01  4.693565524236E-01
  4.471884439808E-01  4.256468402897E-01  4.047451594235E-01  3.844938955571E-01
  3.649007683911E-01  3.459708760229E-01  3.277068501058E-01  3.101090122048E-01
  2.931755303353E-01  2.769025747521E-01  2.612844721323E-01  2.463138573817E-01
  2.319818223719E-01  2.182780609961E-01  2.051910100147E-01  1.927079852251E-01
  1.808153125894E-01  1.694984539896E-01  1.587421273736E-01  1.485304211061E-01
  1.388469023903E-01  1.296747196904E-01  1.209966991198E-01  1.127954348090E-01
  1.050533732973E-01  9.775289202677E-02  9.087637204114E-02  8.440626501289E-02
  7.832515473987E-02  7.261581326500E-02  6.726125178347E-02  6.224476650914E-02
  5.754997967811E-02  5.316087587158E-02  4.906183384416E-02  4.523765404684E-02
  4.167358203700E-02  3.835532797102E-02  3.526908237825E-02  3.240152841845E-02
  2.973985082817E-02  2.727174176457E-02  2.498540375803E-02  2.286954998694E-02
  2.091340208935E-02  1.910668572649E-02  1.743962411200E-02  1.590292971894E-02
  1.448779437238E-02  1.318587793102E-02  1.198929575459E-02  1.089060514638E-02
  9.882790951443E-03  8.959250481332E-03  8.113777925856E-03  7.340548400881E-03
  6.634101769778E-03  5.989326364029E-03  5.401442716480E-03  4.865987408617E-03
  4.378797121375E-03  3.935992967398E-03  3.533965171462E-03  3.169358155138E-03
  2.839056071680E-03  2.540168827711E-03  2.270018619610E-03  2.026127004539E-03
  1.806202518929E-03  1.608128850850E-03  1.429953567166E-03  1.269877391563E-03
  1.126244025517E-03  9.975305009694E-04  8.823380508052E-04  7.793834812294E-04
  6.874910286268E-04  6.055846825151E-04  5.326809556113E-04  4.678820817991E-04
  4.103696228396E-04  3.593984649346E-04  3.142911866907E-04  2.744327805820E-04
  2.392657106339E-04  2.082852897151E-04  1.810353604946E-04  1.571042647858E-04
  1.361210866366E-04  1.177521551263E-04  1.016977933962E-04  8.768930096345E-05
  7.548615685197E-05  6.487343152661E-05  5.565939603450E-05  4.767331715357E-05
  4.076342772405E-05  3.479506170085E-05  2.964894381798E-05  2.521962410494E-05
  2.141404784232E-05  1.815025189248E-05  1.535617869291E-05  1.296859955588E-05
  1.093213927747E-05  9.198394423868E-06  7.725138029434E-06  6.475603810659E-06
  5.417843369681E-06  4.524150229690E-06  3.770544910129E-06  3.136315610539E-06
  2.603609426274E-06  2.157069365548E-06  1.783512773847E-06  1.471647097169E-06
  1.211819228790E-06  9.957949841895E-07  8.165655346555E-07  6.681779013463E-07
  5.455868677547E-07  4.445259094352E-07  3.613949654171E-07  2.931630860554E-07
  2.372841873895E-07  1.916243227417E-07  1.543990487366E-07  1.241196157033E-07
  9.954685212150E-08  7.965174005113E-08  6.358179402441E-08  5.063246039283E-08
  4.022284832803E-08  3.187518830211E-08  2.519748963194E-08  1.986893626645E-08
  1.562762010228E-08  1.226026438679E-08  9.593636828001E-09  7.487393469141E-09
  5.828130754094E-09  4.524455026640E-09  3.502906451240E-09  2.704598460010E-09
  2.082454726881E-09  1.598943717929E-09  1.224226405301E-09  9.346460671277E-10
  7.115005034166E-10  5.400467254839E-10  4.086964448877E-10  3.083676933848E-10
  2.319638219085E-10  1.739561070947E-10  1.300503729296E-10  9.692153016879E-11
  7.200284965919E-11  5.331920632735E-11  3.935553509146E-11  2.895339429236E-11
  2.122989299921E-11  1.551435403091E-11  1.129899583339E-11  8.200658278646E-12
  5.931199387776E-12  4.274676631745E-12  3.069818521593E-12  2.196606925975E-12
  1.566042293763E-12  1.112364588080E-12  7.871620471260E-13  5.549259186467E-13
  3.897086476931E-13  2.726209920735E-13  1.899645469180E-13  1.318436954045E-13
  9.113789755736E-14  6.274375246448E-14  4.301823312916E-14  2.937133806323E-14
  1.996927023898E-14  1.351904141802E-14  9.112814138476E-15  6.115886615105E-15
  4.086426984493E-15  2.718205515345E-15  1.799913345221E-15  1.186391179053E-15
  7.783719431924E-16  5.082823615128E-16  3.303367213747E-16  2.136572616254E-16
  1.375188357867E-16  8.807747502659E-17  5.613061005025E-17  3.559103967317E-17
  2.245231099370E-17  1.409074378006E-17  8.796950023886E-18  5.462962950141E-18
  3.374383578435E-18  2.073014967972E-18  1.266553594664E-18  7.695357304787E-19
  4.649310749884E-19  2.793012504415E-19  1.616565525550E-19  9.609488171516E-20
  5.678416628353E-20  3.335341477170E-20  0.000000000000E+00  0.000000000000E+00
  0.000000000000E+00  0.000000000000E+00  0.000000000000E+00  0.000000000000E+00
  0.000000000000E+00  0.000000000000E+00  0.000000000000E+00  0.000000000000E+00
  0.000000000000E+00  0.000000000000E+00  0.000000000000E+00  0.000000000000E+00
  0.000000000000E+00  0.000000000000E+00  0.000000000000E+00  0.000000000000E+00
  0.000000000000E+00  0.000000000000E+00  0.000000000000E+00  0.000000000000E+00
  0.000000000000E+00  0.000000000000E+00  0.000000000000E+00  0.000000000000E+00
  0.000000000000E+00  0.000000000000E+00  0.000000000000E+00  0.000000000000E+00
  0.000000000000E+00  0.000000000000E+00
</data>
</radfunc>
</valence-charge>
<pseudocore-charge matching-radius="1.51743186966"
 number-of-continuous-derivatives="4">
<annotation model-charge-form="Teter function with specified parameters" />
<radfunc>
<data npts="291">
  5.159573606276E+00  5.159474731861E+00  5.159169614639E+00  5.158664473502E+00
  5.157961980435E+00  5.157037968178E+00  5.155859817389E+00  5.154510030625E+00
  5.152991442679E+00  5.151219326847E+00  5.149220293851E+00  5.147045608849E+00
  5.144414767253E+00  5.141664066709E+00  5.138913059263E+00  5.135740399412E+00
  5.132081763634E+00  5.128608580061E+00  5.124698009739E+00  5.120295347623E+00
  5.115339147846E+00  5.110929555433E+00  5.106082541528E+00  5.100755167556E+00
  5.094900375077E+00  5.088466610578E+00  5.081397420382E+00  5.075641572612E+00
  5.069465471874E+00  5.062838975849E+00  5.055729863594E+00  5.048103705129E+00
  5.039923724892E+00  5.031150659140E+00  5.021742607428E+00  5.011654878411E+00
  5.000839830321E+00  4.989246706600E+00  4.981059147121E+00  4.972484971762E+00
  4.963506617268E+00  4.954105791900E+00  4.944263452317E+00  4.933959780495E+00
  4.923174160803E+00  4.911885157341E+00  4.900070491694E+00  4.887707021244E+00
  4.874770718220E+00  4.861236649667E+00  4.847078958569E+00  4.832270846336E+00
  4.816784556944E+00  4.800591362999E+00  4.783661554053E+00  4.765964427523E+00
  4.747468282599E+00  4.728140417553E+00  4.707947130921E+00  4.686853727048E+00
  4.664824526547E+00  4.641822882247E+00  4.617811201280E+00  4.592750973989E+00
  4.566602810377E+00  4.539326484906E+00  4.510880990482E+00  4.496206792028E+00
  4.481224602505E+00  4.465929106543E+00  4.450314953967E+00  4.434376762817E+00
  4.418109122578E+00  4.401506597639E+00  4.384563730979E+00  4.367275048095E+00
  4.349635061173E+00  4.331638273526E+00  4.313279184296E+00  4.294552293431E+00
  4.275452106955E+00  4.255973142535E+00  4.236109935348E+00  4.215857044278E+00
  4.195209058427E+00  4.174160603978E+00  4.152706351391E+00  4.130841022968E+00
  4.108559400777E+00  4.085856334963E+00  4.062726752429E+00  4.039165665932E+00
  4.015168183570E+00  3.990729518683E+00  3.965845000183E+00  3.940510083302E+00
  3.914720360788E+00  3.888471574529E+00  3.861759627635E+00  3.834580596974E+00
  3.806930746155E+00  3.778806538979E+00  3.750204653354E+00  3.721121995664E+00
  3.691555715607E+00  3.661503221493E+00  3.630962195999E+00  3.599930612374E+00
  3.568406751091E+00  3.536389216936E+00  3.503876956520E+00  3.470869276207E+00
  3.437365860438E+00  3.403366790428E+00  3.368872563232E+00  3.333884111134E+00
  3.298402821348E+00  3.262430556003E+00  3.225969672354E+00  3.189023043221E+00
  3.151594077576E+00  3.113686741261E+00  3.075305577772E+00  3.036455729064E+00
  2.997142956313E+00  2.957373660577E+00  2.917154903288E+00  2.876494426493E+00
  2.835400672788E+00  2.793882804831E+00  2.751950724375E+00  2.709615090710E+00
  2.666887338416E+00  2.623779694333E+00  2.580305193617E+00  2.536477694786E+00
  2.492311893627E+00  2.447823335827E+00  2.403028428211E+00  2.357944448437E+00
  2.312589553015E+00  2.266982783495E+00  2.221144070676E+00  2.175094236679E+00
  2.128854994729E+00  2.082448946487E+00  2.035899576751E+00  1.989231245393E+00
  1.942469176335E+00  1.895639443420E+00  1.848768953009E+00  1.801885423145E+00
  1.755017359121E+00  1.708194025312E+00  1.661445413121E+00  1.614802204902E+00
  1.568295733733E+00  1.521957938937E+00  1.475821317227E+00  1.429918869419E+00
  1.384284042622E+00  1.338950667868E+00  1.293952893161E+00  1.249325111938E+00
  1.205101886964E+00  1.161317869734E+00  1.118007715446E+00  1.075205993688E+00
  1.032947094976E+00  9.912651333507E-01  9.501938452703E-01  9.097664850662E-01
  8.700157172943E-01  8.309735063465E-01  7.926710037373E-01  7.551384335299E-01
  7.184049764124E-01  6.824986529860E-01  6.474462068726E-01  6.132729882987E-01
  5.800028388580E-01  5.476579781974E-01  5.162588934151E-01  4.858242319935E-01
  4.563706991255E-01  4.279129603186E-01  4.004635501834E-01  3.740327883301E-01
  3.486287032988E-01  3.242569654532E-01  3.009208297508E-01  2.786210892851E-01
  2.573560404581E-01  2.371214606002E-01  2.179105987926E-01  1.997141805803E-01
  1.825204271766E-01  1.663150896622E-01  1.510814985712E-01  1.368006291294E-01
  1.234511822729E-01  1.110096814219E-01  9.945058482526E-02  8.874641311614E-02
  7.886789153977E-02  6.978410612628E-02  6.146267289053E-02  5.386991894736E-02
  4.697107423956E-02  4.073047238835E-02  3.511175899781E-02  3.007810557754E-02
  2.559242709675E-02  2.161760105153E-02  1.811668581945E-02  1.505313599550E-02
  1.239101235489E-02  1.009518407421E-02  8.131520866600E-03  6.467072750946E-03
  5.070235281419E-03  3.910898213519E-03  2.960575775603E-03  2.192516950191E-03
  1.581794445006E-03  1.105371346430E-03  7.421447935765E-04  4.729663836470E-04
  2.806394119310E-04  1.498934546163E-04  6.733721057542E-05  2.139091960436E-05
  2.200058791597E-06  1.532375021088E-06  1.266062928900E-05  3.023369711800E-05
  5.013887921948E-05  6.935841916908E-05  8.582329328946E-05  9.826732721459E-05
  1.060846011225E-04  1.091929313990E-04  1.079059634526E-04  1.028160844660E-04
  9.468997501214E-05  8.437817653976E-05  7.273957224650E-05  6.058117851257E-05
  4.861314119324E-05  3.741834491225E-05  2.743559338078E-05  1.895492316406E-05
  1.212328890079E-05  6.958618649515E-06  3.370094037620E-06  1.182467046250E-06
  1.622844089822E-07  4.404724612309E-08  5.545778716759E-07  1.434182833920E-06
  2.453571946266E-06  3.425894719237E-06  4.213663530772E-06  4.730721855474E-06
  4.939761862252E-06  4.846177520756E-06  4.489240378552E-06  3.931694623544E-06
  3.248882060394E-06  2.518429722418E-06  1.811373817464E-06  1.185370929138E-06
  6.803834218760E-07  3.169466766541E-07  9.685793050796E-08  5.895364039104E-09
  1.800287420744E-08  1.002756230032E-07  2.180610052220E-07  3.395474184880E-07
  4.393387747216E-07  5.006881300050E-07  5.162656714738E-07  4.875384021649E-07
  4.230155498379E-07  3.357431693631E-07  2.404985413807E-07  1.511335824245E-07
  7.845015270599E-08  2.887178938100E-08  4.026386512588E-09
</data>
</radfunc>
</pseudocore-charge>
<semilocal-potentials set="scalar_relativistic">
<slps n="5" l="s" rc="2.02041926594">
<radfunc>
<data npts="291">
  2.748920475297E+01  2.747832307494E+01  2.744478202386E+01  2.738938122106E+01
  2.731260140366E+01  2.721207766756E+01  2.708467014026E+01  2.693974420440E+01
  2.677801036824E+01  2.659101482461E+01  2.638229138599E+01  2.615785365480E+01
  2.588992919299E+01  2.561391801687E+01  2.534199755447E+01  2.503340057167E+01
  2.468401924228E+01  2.435860451412E+01  2.399929772710E+01  2.360349475752E+01
  2.316861117884E+01  2.279087890841E+01  2.238531380312E+01  2.195078995704E+01
  2.148630165849E+01  2.099099669851E+01  2.046421200397E+01  2.004819264342E+01
  1.961412652813E+01  1.916201795806E+01  1.869197263377E+01  1.820420596203E+01
  1.769905071327E+01  1.717696380860E+01  1.663853200901E+01  1.608447628113E+01
  1.551565462394E+01  1.493306315960E+01  1.453757309765E+01  1.413683330767E+01
  1.373123899153E+01  1.332121054467E+01  1.290719256834E+01  1.248965269322E+01
  1.206908021866E+01  1.164598457382E+01  1.122089360973E+01  1.079435173333E+01
  1.036691789638E+01  9.939163454695E+00  9.511669913992E+00  9.085026580704E+00
  8.659828136664E+00  8.236672157429E+00  7.816156594241E+00  7.398877239416E+00
  6.985425194451E+00  6.576384359108E+00  6.172328958393E+00  5.773821122556E+00
  5.381408533192E+00  4.995622146094E+00  4.616973998884E+00  4.245955108640E+00
  3.883033461755E+00  3.528652095297E+00  3.183227266120E+00  3.013995878446E+00
  2.847146701139E+00  2.682723467023E+00  2.520767919459E+00  2.361319763001E+00
  2.204416614655E+00  2.050093955635E+00  1.898385083476E+00  1.749321064385E+00
  1.602930685692E+00  1.459240408279E+00  1.318274318853E+00  1.180054081947E+00
  1.044598891527E+00  9.119254220998E-01  7.820477792206E-01  6.549774493278E-01
  5.307232488229E-01  4.092912723576E-01  2.906848403000E-01  1.749044453764E-01
  6.194769852267E-02 -4.819072599884E-02 -1.555191461128E-01 -2.600489279409E-01
 -3.617945421214E-01 -4.607736202047E-01 -5.570070108406E-01 -6.505188354081E-01
 -7.413365426823E-01 -8.294909620592E-01 -9.150163547935E-01 -9.979504626217E-01
 -1.078334553065E+00 -1.156213460626E+00 -1.231635622991E+00 -1.304653111286E+00
 -1.375321653300E+00 -1.443700648548E+00 -1.509853173898E+00 -1.573845978428E+00
 -1.635749466089E+00 -1.695637664623E+00 -1.753588179168E+00 -1.809682128845E+00
 -1.864004064605E+00 -1.916641866540E+00 -1.967686618839E+00 -2.017232460552E+00
 -2.065376410329E+00 -2.112218163326E+00 -2.157859858556E+00 -2.202405815011E+00
 -2.245962235050E+00 -2.288636873671E+00 -2.330538672525E+00 -2.371777357744E+00
 -2.412463000966E+00 -2.452705543263E+00 -2.492614282066E+00 -2.532297321614E+00
 -2.571860987897E+00 -2.611409209619E+00 -2.651042867208E+00 -2.690859112518E+00
 -2.730950662443E+00 -2.771405070307E+00 -2.812303979500E+00 -2.853722364461E+00
 -2.895727764724E+00 -2.938379518291E+00 -2.981728001159E+00 -3.025813880287E+00
 -3.070667387694E+00 -3.116307623731E+00 -3.162741897748E+00 -3.209965114595E+00
 -3.257959215338E+00 -3.306692680544E+00 -3.356120104297E+00 -3.406181846789E+00
 -3.456803772999E+00 -3.507897084460E+00 -3.559358250653E+00 -3.611069045960E+00
 -3.662896697590E+00 -3.714694149294E+00 -3.766300445184E+00 -3.817541237528E+00