I     ONCVPSP-3.3.0  r_core=   1.97279   1.85857   1.85857
53.0000     17.0000      180506    zatom,zion,pspd
8      11   2     4   600     0    pspcod,pspxc,lmax,lloc,mmax,r2well
5.99000000  8.80000000  0.00000000    rchrg fchrg qchrg
2     4     2     0    nproj
3     1           extension_switch
4     3     0    nprojso
0                         1.2814496227784D+00  7.2602719662596D+00
1  0.0000000000000D+00 -4.9185794326334D-11  9.1134738644527D-12
2  1.0000000000000D-02  2.7217082922843D-02  1.0495487970827D-02
3  2.0000000000000D-02  5.4288212499439D-02  2.1033344692423D-02
4  3.0000000000000D-02  8.1068128482052D-02  3.1655746148384D-02
5  4.0000000000000D-02  1.0741295379000D-01  4.2404483482444D-02
6  5.0000000000000D-02  1.3318087853069D-01  5.3320772312468D-02
7  6.0000000000000D-02  1.5823283498031D-01  6.4445064118735D-02
8  7.0000000000000D-02  1.8243316056850D-01  7.5816860387279D-02
9  8.0000000000000D-02  2.0565024596043D-01  8.7474530179931D-02
10  9.0000000000000D-02  2.2775716539079D-01  9.9455131791383D-02
11  1.0000000000000D-01  2.4863228647732D-01  1.1179423914004D-01
12  1.1000000000000D-01  2.6815985682562D-01  1.2452577352372D-01
13  1.2000000000000D-01  2.8623056483284D-01  1.3768184135351D-01
14  1.3000000000000D-01  3.0274207220375D-01  1.5129257845900D-01
15  1.4000000000000D-01  3.1759951581025D-01  1.6538600153653D-01
16  1.5000000000000D-01  3.3071597665142D-01  1.7998786728789D-01
17  1.6000000000000D-01  3.4201291380826D-01  1.9512153977138D-01
18  1.7000000000000D-01  3.5142056143233D-01  2.1080786645949D-01
19  1.8000000000000D-01  3.5887828696168D-01  2.2706506346828D-01
20  1.9000000000000D-01  3.6433490891911D-01  2.4390861039233D-01
21  2.0000000000000D-01  3.6774897281727D-01  2.6135115514701D-01
22  2.1000000000000D-01  3.6908898387091D-01  2.7940242918553D-01
23  2.2000000000000D-01  3.6833359539828D-01  2.9806917342302D-01
24  2.3000000000000D-01  3.6547175198143D-01  3.1735507516341D-01
25  2.4000000000000D-01  3.6050278664631D-01  3.3726071628693D-01
26  2.5000000000000D-01  3.5343647151983D-01  3.5778353291753D-01
27  2.6000000000000D-01  3.4429302161949D-01  3.7891778674960D-01
28  2.7000000000000D-01  3.3310305163217D-01  4.0065454817321D-01
29  2.8000000000000D-01  3.1990748574135D-01  4.2298169129567D-01
30  2.9000000000000D-01  3.0475742076514D-01  4.4588390091588D-01
31  3.0000000000000D-01  2.8771394307043D-01  4.6934269146562D-01
32  3.1000000000000D-01  2.6884789993063D-01  4.9333643788995D-01
33  3.2000000000000D-01  2.4823962619435D-01  5.1784041839630D-01
34  3.3000000000000D-01  2.2597862733028D-01  5.4282686895960D-01
35  3.4000000000000D-01  2.0216322010688D-01  5.6826504942857D-01
36  3.5000000000000D-01  1.7690013235555D-01  5.9412132103666D-01
37  3.6000000000000D-01  1.5030406345002D-01  6.2035923507932D-01
38  3.7000000000000D-01  1.2249720731299D-01  6.4693963247921D-01
39  3.8000000000000D-01  9.3608739932748D-02  6.7382075392042D-01
40  3.9000000000000D-01  6.3774273536202D-02  7.0095836019400D-01
41  4.0000000000000D-01  3.3135279720150D-02  7.2830586235927D-01
42  4.1000000000000D-01  1.8384839893331D-03  7.5581446128824D-01
43  4.2000000000000D-01 -2.9964765713964D-02  7.8343329612547D-01
44  4.3000000000000D-01 -6.2119153777835D-02  8.1110960116159D-01
45  4.4000000000000D-01 -9.4466072160296D-02  8.3878887058641D-01
46  4.5000000000000D-01 -1.2684431317145D-01  8.6641503055723D-01
47  4.6000000000000D-01 -1.5909077677836D-01  8.9393061798907D-01
48  4.7000000000000D-01 -1.9104118933468D-01  9.2127696544717D-01
49  4.8000000000000D-01 -2.2253083057217D-01  9.4839439149757D-01
50  4.9000000000000D-01 -2.5339526564011D-01  9.7522239584915D-01
51  5.0000000000000D-01 -2.8347107894167D-01  1.0016998586010D+00
52  5.1000000000000D-01 -3.1259660649316D-01  1.0277652428911D+00
53  5.2000000000000D-01 -3.4061266352398D-01  1.0533568002276D+00
54  5.3000000000000D-01 -3.6736326404163D-01  1.0784127777716D+00
55  5.4000000000000D-01 -3.9269632910710D-01  1.1028716268307D+00
56  5.5000000000000D-01 -4.1646438060243D-01  1.1266722118151D+00
57  5.6000000000000D-01 -4.3852521732285D-01  1.1497540189053D+00
58  5.7000000000000D-01 -4.5874257029187D-01  1.1720573636774D+00
59  5.8000000000000D-01 -4.7698673427764D-01  1.1935235969332D+00
60  5.9000000000000D-01 -4.9313517258394D-01  1.2140953079905D+00
61  6.0000000000000D-01 -5.0707309229698D-01  1.2337165246899D+00
62  6.1000000000000D-01 -5.1869398729243D-01  1.2523329093901D+00
63  6.2000000000000D-01 -5.2790014644164D-01  1.2698919502336D+00
64  6.3000000000000D-01 -5.3460312460459D-01  1.2863431469811D+00
65  6.4000000000000D-01 -5.3872417415748D-01  1.3016381907309D+00
66  6.5000000000000D-01 -5.4019463497381D-01  1.3157311368621D+00
67  6.6000000000000D-01 -5.3895628096120D-01  1.3285785705626D+00
68  6.7000000000000D-01 -5.3496162144805D-01  1.3401397643293D+00
69  6.8000000000000D-01 -5.2817415591537D-01  1.3503768268592D+00
70  6.9000000000000D-01 -5.1856858077963D-01  1.3592548427769D+00
71  7.0000000000000D-01 -5.0613094714917D-01  1.3667420026811D+00
72  7.1000000000000D-01 -4.9085876870038D-01  1.3728097230276D+00
73  7.2000000000000D-01 -4.7276107904818D-01  1.3774327554008D+00
74  7.3000000000000D-01 -4.5185843821908D-01  1.3805892847709D+00
75  7.4000000000000D-01 -4.2818288807084D-01  1.3822610163676D+00
76  7.5000000000000D-01 -4.0177785674120D-01  1.3824332508510D+00
77  7.6000000000000D-01 -3.7269801244707D-01  1.3810949474989D+00
78  7.7000000000000D-01 -3.4100906719482D-01  1.3782387751780D+00
79  7.8000000000000D-01 -3.0678753119939D-01  1.3738611509106D+00
80  7.9000000000000D-01 -2.7012041904464D-01  1.3679622658965D+00
81  8.0000000000000D-01 -2.3110490884891D-01  1.3605460988982D+00
82  8.1000000000000D-01 -1.8984795592507D-01  1.3516204169413D+00
83  8.2000000000000D-01 -1.4646586264479D-01  1.3411967633364D+00
84  8.3000000000000D-01 -1.0108380642857D-01  1.3292904330713D+00
85  8.4000000000000D-01 -5.3835327988138D-02  1.3159204356734D+00
86  8.5000000000000D-01 -4.8617821416808D-03  1.3011094456885D+00
87  8.6000000000000D-01  4.5688246293064D-02  1.2848837409696D+00
88  8.7000000000000D-01  9.7659558850328D-02  1.2672731290153D+00
89  8.8000000000000D-01  1.5089098917482D-01  1.2483108616425D+00
90  8.9000000000000D-01  2.0521607520289D-01  1.2280335383211D+00
91  9.0000000000000D-01  2.6046375464951D-01  1.2064809985426D+00
92  9.1000000000000D-01  3.1645908056650D-01  1.1836962036341D+00
93  9.2000000000000D-01  3.7302395363582D-01  1.1597251084685D+00
94  9.3000000000000D-01  4.2997786777612D-01  1.1346165235590D+00
95  9.4000000000000D-01  4.8713866557145D-01  1.1084219680620D+00
96  9.5000000000000D-01  5.4432329998066D-01  1.0811955142428D+00
97  9.6000000000000D-01  6.0134859875092D-01  1.0529936239924D+00
98  9.7000000000000D-01  6.5803202794360D-01  1.0238749780094D+00
99  9.8000000000000D-01  7.1419245098252D-01  9.9390029828585D-01
100  9.9000000000000D-01  7.6965087965534D-01  9.6313216456158D-01
101  1.0000000000000D+00  8.2423121353673D-01  9.3163482542692D-01
102  1.0100000000000D+00  8.7776096435815D-01  8.9947400477469D-01
103  1.0200000000000D+00  9.3007196192656D-01  8.6671670431345D-01
104  1.0300000000000D+00  9.8100103828005D-01  8.3343100286606D-01
105  1.0400000000000D+00  1.0303906868828D+00  7.9968585318515D-01
106  1.0500000000000D+00  1.0780896937857D+00  7.6555087702198D-01
107  1.0600000000000D+00  1.1239537378188D+00  7.3109615918646D-01
108  1.0700000000000D+00  1.1678459570430D+00  6.9639204133504D-01
109  1.0800000000000D+00  1.2096374788570D+00  6.6150891621813D-01
110  1.0900000000000D+00  1.2492079113329D+00  6.2651702311240D-01
111  1.1000000000000D+00  1.2864457935701D+00  5.9148624515145D-01
112  1.1100000000000D+00  1.3212490030464D+00  5.5648590925628D-01
113  1.1200000000000D+00  1.3535251181945D+00  5.2158458934853D-01
114  1.1300000000000D+00  1.3831917346097D+00  4.8684991351525D-01
115  1.1400000000000D+00  1.4101767335918D+00  4.5234837576748D-01
116  1.1500000000000D+00  1.4344185019284D+00  4.1814515301444D-01
117  1.1600000000000D+00  1.4558661021203D+00  3.8430392784416D-01
118  1.1700000000000D+00  1.4744793924202D+00  3.5088671768289D-01
119  1.1800000000000D+00  1.4902290964164D+00  3.1795371086373D-01
120  1.1900000000000D+00  1.5030968220935D+00  2.8556311010812D-01
121  1.2000000000000D+00  1.5130750305823D+00  2.5377098388806D-01
122  1.2100000000000D+00  1.5201669550176D+00  2.2263112610883D-01
123  1.2200000000000D+00  1.5243864702663D+00  1.9219492450236D-01
124  1.2300000000000D+00  1.5257579145168D+00  1.6251123808475D-01
125  1.2400000000000D+00  1.5243158638459D+00  1.3362628401367D-01
126  1.2500000000000D+00  1.5201048613017D+00  1.0558353411182D-01
127  1.2600000000000D+00  1.5131791021959D+00  7.8423621291679D-02
128  1.2700000000000D+00  1.5036020774201D+00  5.2184256096892D-02
129  1.2800000000000D+00  1.4914461769667D+00  2.6900153507191D-02
130  1.2900000000000D+00  1.4767922559966D+00  2.6029701135849D-03
131  1.3000000000000D+00  1.4597291658485D+00 -2.0678748236620D-02
132  1.3100000000000D+00  1.4403532527321D+00 -4.2919608303099D-02
133  1.3200000000000D+00  1.4187678269546D+00 -6.4097400841511D-02
134  1.3300000000000D+00  1.3950826055288D+00 -8.4193121524956D-02
135  1.3400000000000D+00  1.3694131313607D+00 -1.0319098150909D-01
136  1.3500000000000D+00  1.3418801721702D+00 -1.2107840775786D-01
137  1.3600000000000D+00  1.3126091023721D+00 -1.3784603324924D-01
138  1.3700000000000D+00  1.2817292713479D+00 -1.5348767729205D-01
139  1.3800000000000D+00  1.2493733614255D+00 -1.6800031614324D-01
140  1.3900000000000D+00  1.2156767390464D+00 -1.8138404417337D-01
141  1.4000000000000D+00  1.1807768025037D+00 -1.9364202589196D-01
142  1.4100000000000D+00  1.1448123297269D+00 -2.0478043908665D-01
143  1.4200000000000D+00  1.1079228294787D+00 -2.1480840945299D-01
144  1.4300000000000D+00  1.0702478992785D+00 -2.2373793704527D-01
145  1.4400000000000D+00  1.0319265934767D+00 -2.3158381491441D-01
146  1.4500000000000D+00  9.9309680440090D-01 -2.3836354035772D-01
147  1.4600000000000D+00  9.5389466003609D-01 -2.4409721914335D-01
148  1.4700000000000D+00  9.1445394085367D-01 -2.4880746317561D-01
149  1.4800000000000D+00  8.7490551883697D-01 -2.5251928200445D-01
150  1.4900000000000D+00  8.3537682141327D-01 -2.5525996863806D-01
151  1.5000000000000D+00  7.9599132247195D-01 -2.5705898010521D-01
152  1.5100000000000D+00  7.5686806345794D-01 -2.5794781322194D-01
153  1.5200000000000D+00  7.1812120572656D-01 -2.5795987602171D-01
154  1.5300000000000D+00  6.7985961721377D-01 -2.5713035531160D-01
155  1.5400000000000D+00  6.4218649402269D-01 -2.5549608080484D-01
156  1.5500000000000D+00  6.0519901932653D-01 -2.5309538629284D-01
157  1.5600000000000D+00  5.6898806024111D-01 -2.4996796830081D-01
158  1.5700000000000D+00  5.3363790391614D-01 -2.4615474266549D-01
159  1.5800000000000D+00  4.9922603377264D-01 -2.4169769948611D-01
160  1.5900000000000D+00  4.6582294584461D-01 -2.3663975683589D-01
161  1.6000000000000D+00  4.3349200647100D-01 -2.3102461370411D-01
162  1.6100000000000D+00  4.0228934999023D-01 -2.2489660248309D-01
163  1.6200000000000D+00  3.7226381796304D-01 -2.1830054149712D-01
164  1.6300000000000D+00  3.4345693735476D-01 -2.1128158780011D-01
165  1.6400000000000D+00  3.1590293937796D-01 -2.0388509076797D-01
166  1.6500000000000D+00  2.8962881537708D-01 -1.9615644661942D-01
167  1.6600000000000D+00  2.6465441143186D-01 -1.8814095441233D-01
168  1.6700000000000D+00  2.4099255737689D-01 -1.7988367356988D-01
169  1.6800000000000D+00  2.1864923149813D-01 -1.7142928347668D-01
170  1.6900000000000D+00  1.9762375634074D-01 -1.6282194514392D-01
171  1.7000000000000D+00  1.7790902629973D-01 -1.5410516546198D-01
172  1.7100000000000D+00  1.5949176228630D-01 -1.4532166398639D-01
173  1.7200000000000D+00  1.4235279358822D-01 -1.3651324275802D-01
174  1.7300000000000D+00  1.2646736216220D-01 -1.2772065904606D-01
175  1.7400000000000D+00  1.1180544891565D-01 -1.1898350150154D-01
176  1.7500000000000D+00  9.8332117362665D-02 -1.1034006955803D-01
177  1.7600000000000D+00  8.6007869609188D-02 -1.0182725553121D-01
178  1.7700000000000D+00  7.4789036396258D-02 -9.3480435939418D-02
179  1.7800000000000D+00  6.4628102364828D-02 -8.5333346950796D-02
180  1.7900000000000D+00  5.5474230478015D-02 -7.7418015643150D-02
181  1.8000000000000D+00  4.7273566502742D-02 -6.9764632727775D-02
182  1.8100000000000D+00  3.9969335901987D-02 -6.2401380171874D-02
183  1.8200000000000D+00  3.3502708324212D-02 -5.5354460572742D-02
184  1.8300000000000D+00  2.7813834774389D-02 -4.8648172065750D-02
185  1.8400000000000D+00  2.2842733281065D-02 -4.2304967609604D-02
186  1.8500000000000D+00  1.8530307952854D-02 -3.6345570247638D-02
187  1.8600000000000D+00  1.4819211514680D-02 -3.0789052894596D-02
188  1.8700000000000D+00  1.1653978372503D-02 -2.5652741345702D-02
189  1.8800000000000D+00  8.9812745155042D-03 -2.0952160816037D-02
190  1.8900000000000D+00  6.7504068884936D-03 -1.6701048622233D-02
191  1.9000000000000D+00  4.9135781589337D-03 -1.2911315032597D-02
192  1.9100000000000D+00  3.4264480247716D-03 -9.5949716076956D-03
193  1.9200000000000D+00  2.2474211854487D-03 -6.7565543879338D-03
194  1.9300000000000D+00  1.3386534202060D-03 -4.3951293783042D-03
195  1.9400000000000D+00  6.6731228857943D-04 -2.5237799959476D-03
196  1.9500000000000D+00  2.0505451922397D-04 -1.1728679301017D-03
197  1.9600000000000D+00 -7.7165049276399D-05 -3.4200617409469D-04
198  1.9700000000000D+00 -1.9372028968703D-04  5.8343484715154D-05
199  1.9800000000000D+00 -1.6338972631155D-04  1.4338759271052D-04
200  1.9900000000000D+00 -6.2237225521868D-05  6.6808377383985D-05
201  2.0000000000000D+00  1.6087048828236D-05 -1.8276403370236D-05
202  2.0100000000000D+00  2.5304957119836D-05 -3.0295910178656D-05
203  2.0200000000000D+00  1.1989040906282D-06 -1.4831842593739D-06
204  2.0300000000000D+00 -5.8793342036476D-06  6.2634743726598D-06
205  2.0400000000000D+00 -3.1273434562060D-06  3.3971876475473D-06
206  2.0500000000000D+00  3.9318725598658D-07 -2.1358000129616D-07
207  2.0600000000000D+00  5.0840666053013D-07 -2.7616738223760D-07
208  2.0700000000000D+00  0.0000000000000D+00  0.0000000000000D+00
209  2.0800000000000D+00  0.0000000000000D+00  0.0000000000000D+00
210  2.0900000000000D+00  0.0000000000000D+00  0.0000000000000D+00
211  2.1000000000000D+00  0.0000000000000D+00  0.0000000000000D+00
212  2.1100000000000D+00  0.0000000000000D+00  0.0000000000000D+00
213  2.1200000000000D+00  0.0000000000000D+00  0.0000000000000D+00
214  2.1300000000000D+00  0.0000000000000D+00  0.0000000000000D+00
215  2.1400000000000D+00  0.0000000000000D+00  0.0000000000000D+00
216  2.1500000000000D+00  0.0000000000000D+00  0.0000000000000D+00
217  2.1600000000000D+00  0.0000000000000D+00  0.0000000000000D+00
218  2.1700000000000D+00  0.0000000000000D+00  0.0000000000000D+00
219  2.1800000000000D+00  0.0000000000000D+00  0.0000000000000D+00
220  2.1900000000000D+00  0.0000000000000D+00  0.0000000000000D+00
221  2.2000000000000D+00  0.0000000000000D+00  0.0000000000000D+00
222  2.2100000000000D+00  0.0000000000000D+00  0.0000000000000D+00
223  2.2200000000000D+00  0.0000000000000D+00  0.0000000000000D+00
224  2.2300000000000D+00  0.0000000000000D+00  0.0000000000000D+00
225  2.2400000000000D+00  0.0000000000000D+00  0.0000000000000D+00
226  2.2500000000000D+00  0.0000000000000D+00  0.0000000000000D+00
227  2.2600000000000D+00  0.0000000000000D+00  0.0000000000000D+00
228  2.2700000000000D+00  0.0000000000000D+00  0.0000000000000D+00
229  2.2800000000000D+00  0.0000000000000D+00  0.0000000000000D+00
230  2.2900000000000D+00  0.0000000000000D+00  0.0000000000000D+00
231  2.3000000000000D+00  0.0000000000000D+00  0.0000000000000D+00
232  2.3100000000000D+00  0.0000000000000D+00  0.0000000000000D+00
233  2.3200000000000D+00  0.0000000000000D+00  0.0000000000000D+00
234  2.3300000000000D+00  0.0000000000000D+00  0.0000000000000D+00
235  2.3400000000000D+00  0.0000000000000D+00  0.0000000000000D+00
236  2.3500000000000D+00  0.0000000000000D+00  0.0000000000000D+00
237  2.3600000000000D+00  0.0000000000000D+00  0.0000000000000D+00
238  2.3700000000000D+00  0.0000000000000D+00  0.0000000000000D+00
239  2.3800000000000D+00  0.0000000000000D+00  0.0000000000000D+00
240  2.3900000000000D+00  0.0000000000000D+00  0.0000000000000D+00
241  2.4000000000000D+00  0.0000000000000D+00  0.0000000000000D+00
242  2.4100000000000D+00  0.0000000000000D+00  0.0000000000000D+00
243  2.4200000000000D+00  0.0000000000000D+00  0.0000000000000D+00
244  2.4300000000000D+00  0.0000000000000D+00  0.0000000000000D+00
245  2.4400000000000D+00  0.0000000000000D+00  0.0000000000000D+00
246  2.4500000000000D+00  0.0000000000000D+00  0.0000000000000D+00
247  2.4600000000000D+00  0.0000000000000D+00  0.0000000000000D+00
248  2.4700000000000D+00  0.0000000000000D+00  0.0000000000000D+00
249  2.4800000000000D+00  0.0000000000000D+00  0.0000000000000D+00
250  2.4900000000000D+00  0.0000000000000D+00  0.0000000000000D+00
251  2.5000000000000D+00  0.0000000000000D+00  0.0000000000000D+00
252  2.5100000000000D+00  0.0000000000000D+00  0.0000000000000D+00
253  2.5200000000000D+00  0.0000000000000D+00  0.0000000000000D+00
254  2.5300000000000D+00  0.0000000000000D+00  0.0000000000000D+00
255  2.5400000000000D+00  0.0000000000000D+00  0.0000000000000D+00
256  2.5500000000000D+00  0.0000000000000D+00  0.0000000000000D+00
257  2.5600000000000D+00  0.0000000000000D+00  0.0000000000000D+00
258  2.5700000000000D+00  0.0000000000000D+00  0.0000000000000D+00
259  2.5800000000000D+00  0.0000000000000D+00  0.0000000000000D+00
260  2.5900000000000D+00  0.0000000000000D+00  0.0000000000000D+00
261  2.6000000000000D+00  0.0000000000000D+00  0.0000000000000D+00
262  2.6100000000000D+00  0.0000000000000D+00  0.0000000000000D+00
263  2.6200000000000D+00  0.0000000000000D+00  0.0000000000000D+00
264  2.6300000000000D+00  0.0000000000000D+00  0.0000000000000D+00
265  2.6400000000000D+00  0.0000000000000D+00  0.0000000000000D+00
266  2.6500000000000D+00  0.0000000000000D+00  0.0000000000000D+00
267  2.6600000000000D+00  0.0000000000000D+00  0.0000000000000D+00
268  2.6700000000000D+00  0.0000000000000D+00  0.0000000000000D+00
269  2.6800000000000D+00  0.0000000000000D+00  0.0000000000000D+00
270  2.6900000000000D+00  0.0000000000000D+00  0.0000000000000D+00
271  2.7000000000000D+00  0.0000000000000D+00  0.0000000000000D+00
272  2.7100000000000D+00  0.0000000000000D+00  0.0000000000000D+00
273  2.7200000000000D+00  0.0000000000000D+00  0.0000000000000D+00
274  2.7300000000000D+00  0.0000000000000D+00  0.0000000000000D+00
275  2.7400000000000D+00  0.0000000000000D+00  0.0000000000000D+00
276  2.7500000000000D+00  0.0000000000000D+00  0.0000000000000D+00
277  2.7600000000000D+00  0.0000000000000D+00  0.0000000000000D+00
278  2.7700000000000D+00  0.0000000000000D+00  0.0000000000000D+00
279  2.7800000000000D+00  0.0000000000000D+00  0.0000000000000D+00
280  2.7900000000000D+00  0.0000000000000D+00  0.0000000000000D+00
281  2.8000000000000D+00  0.0000000000000D+00  0.0000000000000D+00
282  2.8100000000000D+00  0.0000000000000D+00  0.0000000000000D+00
283  2.8200000000000D+00  0.0000000000000D+00  0.0000000000000D+00
284  2.8300000000000D+00  0.0000000000000D+00  0.0000000000000D+00
285  2.8400000000000D+00  0.0000000000000D+00  0.0000000000000D+00
286  2.8500000000000D+00  0.0000000000000D+00  0.0000000000000D+00
287  2.8600000000000D+00  0.0000000000000D+00  0.0000000000000D+00
288  2.8700000000000D+00  0.0000000000000D+00  0.0000000000000D+00
289  2.8800000000000D+00  0.0000000000000D+00  0.0000000000000D+00
290  2.8900000000000D+00  0.0000000000000D+00  0.0000000000000D+00
291  2.9000000000000D+00  0.0000000000000D+00  0.0000000000000D+00
292  2.9100000000000D+00  0.0000000000000D+00  0.0000000000000D+00
293  2.9200000000000D+00  0.0000000000000D+00  0.0000000000000D+00
294  2.9300000000000D+00  0.0000000000000D+00  0.0000000000000D+00
295  2.9400000000000D+00  0.0000000000000D+00  0.0000000000000D+00
296  2.9500000000000D+00  0.0000000000000D+00  0.0000000000000D+00
297  2.9600000000000D+00  0.0000000000000D+00  0.0000000000000D+00
298  2.9700000000000D+00  0.0000000000000D+00  0.0000000000000D+00
299  2.9800000000000D+00  0.0000000000000D+00  0.0000000000000D+00
300  2.9900000000000D+00  0.0000000000000D+00  0.0000000000000D+00
301  3.0000000000000D+00  0.0000000000000D+00  0.0000000000000D+00
302  3.0100000000000D+00  0.0000000000000D+00  0.0000000000000D+00
303  3.0200000000000D+00  0.0000000000000D+00  0.0000000000000D+00
304  3.0300000000000D+00  0.0000000000000D+00  0.0000000000000D+00
305  3.0400000000000D+00  0.0000000000000D+00  0.0000000000000D+00
306  3.0500000000000D+00  0.0000000000000D+00  0.0000000000000D+00
307  3.0600000000000D+00  0.0000000000000D+00  0.0000000000000D+00
308  3.0700000000000D+00  0.0000000000000D+00  0.0000000000000D+00
309  3.0800000000000D+00  0.0000000000000D+00  0.0000000000000D+00
310  3.0900000000000D+00  0.0000000000000D+00  0.0000000000000D+00
311  3.1000000000000D+00  0.0000000000000D+00  0.0000000000000D+00
312  3.1100000000000D+00  0.0000000000000D+00  0.0000000000000D+00
313  3.1200000000000D+00  0.0000000000000D+00  0.0000000000000D+00
314  3.1300000000000D+00  0.0000000000000D+00  0.0000000000000D+00
315  3.1400000000000D+00  0.0000000000000D+00  0.0000000000000D+00
316  3.1500000000000D+00  0.0000000000000D+00  0.0000000000000D+00
317  3.1600000000000D+00  0.0000000000000D+00  0.0000000000000D+00
318  3.1700000000000D+00  0.0000000000000D+00  0.0000000000000D+00
319  3.1800000000000D+00  0.0000000000000D+00  0.0000000000000D+00
320  3.1900000000000D+00  0.0000000000000D+00  0.0000000000000D+00
321  3.2000000000000D+00  0.0000000000000D+00  0.0000000000000D+00
322  3.2100000000000D+00  0.0000000000000D+00  0.0000000000000D+00
323  3.2200000000000D+00  0.0000000000000D+00  0.0000000000000D+00
324  3.2300000000000D+00  0.0000000000000D+00  0.0000000000000D+00
325  3.2400000000000D+00  0.0000000000000D+00  0.0000000000000D+00
326  3.2500000000000D+00  0.0000000000000D+00  0.0000000000000D+00
327  3.2600000000000D+00  0.0000000000000D+00  0.0000000000000D+00
328  3.2700000000000D+00  0.0000000000000D+00  0.0000000000000D+00
329  3.2800000000000D+00  0.0000000000000D+00  0.0000000000000D+00
330  3.2900000000000D+00  0.0000000000000D+00  0.0000000000000D+00
331  3.3000000000000D+00  0.0000000000000D+00  0.0000000000000D+00
332  3.3100000000000D+00  0.0000000000000D+00  0.0000000000000D+00
333  3.3200000000000D+00  0.0000000000000D+00  0.0000000000000D+00
334  3.3300000000000D+00  0.0000000000000D+00  0.0000000000000D+00
335  3.3400000000000D+00  0.0000000000000D+00  0.0000000000000D+00
336  3.3500000000000D+00  0.0000000000000D+00  0.0000000000000D+00
337  3.3600000000000D+00  0.0000000000000D+00  0.0000000000000D+00
338  3.3700000000000D+00  0.0000000000000D+00  0.0000000000000D+00
339  3.3800000000000D+00  0.0000000000000D+00  0.0000000000000D+00
340  3.3900000000000D+00  0.0000000000000D+00  0.0000000000000D+00
341  3.4000000000000D+00  0.0000000000000D+00  0.0000000000000D+00
342  3.4100000000000D+00  0.0000000000000D+00  0.0000000000000D+00
343  3.4200000000000D+00  0.0000000000000D+00  0.0000000000000D+00
344  3.4300000000000D+00  0.0000000000000D+00  0.0000000000000D+00
345  3.4400000000000D+00  0.0000000000000D+00  0.0000000000000D+00
346  3.4500000000000D+00  0.0000000000000D+00  0.0000000000000D+00
347  3.4600000000000D+00  0.0000000000000D+00  0.0000000000000D+00
348  3.4700000000000D+00  0.0000000000000D+00  0.0000000000000D+00
349  3.4800000000000D+00  0.0000000000000D+00  0.0000000000000D+00
350  3.4900000000000D+00  0.0000000000000D+00  0.0000000000000D+00
351  3.5000000000000D+00  0.0000000000000D+00  0.0000000000000D+00
352  3.5100000000000D+00  0.0000000000000D+00  0.0000000000000D+00
353  3.5200000000000D+00  0.0000000000000D+00  0.0000000000000D+00
354  3.5300000000000D+00  0.0000000000000D+00  0.0000000000000D+00
355  3.5400000000000D+00  0.0000000000000D+00  0.0000000000000D+00
356  3.5500000000000D+00  0.0000000000000D+00  0.0000000000000D+00
357  3.5600000000000D+00  0.0000000000000D+00  0.0000000000000D+00
358  3.5700000000000D+00  0.0000000000000D+00  0.0000000000000D+00
359  3.5800000000000D+00  0.0000000000000D+00  0.0000000000000D+00
360  3.5900000000000D+00  0.0000000000000D+00  0.0000000000000D+00
361  3.6000000000000D+00  0.0000000000000D+00  0.0000000000000D+00
362  3.6100000000000D+00  0.0000000000000D+00  0.0000000000000D+00
363  3.6200000000000D+00  0.0000000000000D+00  0.0000000000000D+00
364  3.6300000000000D+00  0.0000000000000D+00  0.0000000000000D+00
365  3.6400000000000D+00  0.0000000000000D+00  0.0000000000000D+00
366  3.6500000000000D+00  0.0000000000000D+00  0.0000000000000D+00
367  3.6600000000000D+00  0.0000000000000D+00  0.0000000000000D+00
368  3.6700000000000D+00  0.0000000000000D+00  0.0000000000000D+00
369  3.6800000000000D+00  0.0000000000000D+00  0.0000000000000D+00
370  3.6900000000000D+00  0.0000000000000D+00  0.0000000000000D+00
371  3.7000000000000D+00  0.0000000000000D+00  0.0000000000000D+00
372  3.7100000000000D+00  0.0000000000000D+00  0.0000000000000D+00
373  3.7200000000000D+00  0.0000000000000D+00  0.0000000000000D+00
374  3.7300000000000D+00  0.0000000000000D+00  0.0000000000000D+00
375  3.7400000000000D+00  0.0000000000000D+00  0.0000000000000D+00
376  3.7500000000000D+00  0.0000000000000D+00  0.0000000000000D+00
377  3.7600000000000D+00  0.0000000000000D+00  0.0000000000000D+00
378  3.7700000000000D+00  0.0000000000000D+00  0.0000000000000D+00
379  3.7800000000000D+00  0.0000000000000D+00  0.0000000000000D+00
380  3.7900000000000D+00  0.0000000000000D+00  0.0000000000000D+00
381  3.8000000000000D+00  0.0000000000000D+00  0.0000000000000D+00
382  3.8100000000000D+00  0.0000000000000D+00  0.0000000000000D+00
383  3.8200000000000D+00  0.0000000000000D+00  0.0000000000000D+00
384  3.8300000000000D+00  0.0000000000000D+00  0.0000000000000D+00
385  3.8400000000000D+00  0.0000000000000D+00  0.0000000000000D+00
386  3.8500000000000D+00  0.0000000000000D+00  0.0000000000000D+00
387  3.8600000000000D+00  0.0000000000000D+00  0.0000000000000D+00
388  3.8700000000000D+00  0.0000000000000D+00  0.0000000000000D+00
389  3.8800000000000D+00  0.0000000000000D+00  0.0000000000000D+00
390  3.8900000000000D+00  0.0000000000000D+00  0.0000000000000D+00
391  3.9000000000000D+00  0.0000000000000D+00  0.0000000000000D+00
392  3.9100000000000D+00  0.0000000000000D+00  0.0000000000000D+00
393  3.9200000000000D+00  0.0000000000000D+00  0.0000000000000D+00
394  3.9300000000000D+00  0.0000000000000D+00  0.0000000000000D+00
395  3.9400000000000D+00  0.0000000000000D+00  0.0000000000000D+00
396  3.9500000000000D+00  0.0000000000000D+00  0.0000000000000D+00
397  3.9600000000000D+00  0.0000000000000D+00  0.0000000000000D+00
398  3.9700000000000D+00  0.0000000000000D+00  0.0000000000000D+00
399  3.9800000000000D+00  0.0000000000000D+00  0.0000000000000D+00
400  3.9900000000000D+00  0.0000000000000D+00  0.0000000000000D+00
401  4.0000000000000D+00  0.0000000000000D+00  0.0000000000000D+00
402  4.0100000000000D+00  0.0000000000000D+00  0.0000000000000D+00
403  4.0200000000000D+00  0.0000000000000D+00  0.0000000000000D+00
404  4.0300000000000D+00  0.0000000000000D+00  0.0000000000000D+00
405  4.0400000000000D+00  0.0000000000000D+00  0.0000000000000D+00
406  4.0500000000000D+00  0.0000000000000D+00  0.0000000000000D+00
407  4.0600000000000D+00  0.0000000000000D+00  0.0000000000000D+00
408  4.0700000000000D+00  0.0000000000000D+00  0.0000000000000D+00
409  4.0800000000000D+00  0.0000000000000D+00  0.0000000000000D+00
410  4.0900000000000D+00  0.0000000000000D+00  0.0000000000000D+00
411  4.1000000000000D+00  0.0000000000000D+00  0.0000000000000D+00
412  4.1100000000000D+00  0.0000000000000D+00  0.0000000000000D+00
413  4.1200000000000D+00  0.0000000000000D+00  0.0000000000000D+00
414  4.1300000000000D+00  0.0000000000000D+00  0.0000000000000D+00
415  4.1400000000000D+00  0.0000000000000D+00  0.0000000000000D+00
416  4.1500000000000D+00  0.0000000000000D+00  0.0000000000000D+00
417  4.1600000000000D+00  0.0000000000000D+00  0.0000000000000D+00
418  4.1700000000000D+00  0.0000000000000D+00  0.0000000000000D+00
419  4.1800000000000D+00  0.0000000000000D+00  0.0000000000000D+00
420  4.1900000000000D+00  0.0000000000000D+00  0.0000000000000D+00
421  4.2000000000000D+00  0.0000000000000D+00  0.0000000000000D+00
422  4.2100000000000D+00  0.0000000000000D+00  0.0000000000000D+00
423  4.2200000000000D+00  0.0000000000000D+00  0.0000000000000D+00
424  4.2300000000000D+00  0.0000000000000D+00  0.0000000000000D+00
425  4.2400000000000D+00  0.0000000000000D+00  0.0000000000000D+00
426  4.2500000000000D+00  0.0000000000000D+00  0.0000000000000D+00
427  4.2600000000000D+00  0.0000000000000D+00  0.0000000000000D+00
428  4.2700000000000D+00  0.0000000000000D+00  0.0000000000000D+00
429  4.2800000000000D+00  0.0000000000000D+00  0.0000000000000D+00
430  4.2900000000000D+00  0.0000000000000D+00  0.0000000000000D+00
431  4.3000000000000D+00  0.0000000000000D+00  0.0000000000000D+00
432  4.3100000000000D+00  0.0000000000000D+00  0.0000000000000D+00
433  4.3200000000000D+00  0.0000000000000D+00  0.0000000000000D+00
434  4.3300000000000D+00  0.0000000000000D+00  0.0000000000000D+00
435  4.3400000000000D+00  0.0000000000000D+00  0.0000000000000D+00
436  4.3500000000000D+00  0.0000000000000D+00  0.0000000000000D+00
437  4.3600000000000D+00  0.0000000000000D+00  0.0000000000000D+00
438  4.3700000000000D+00  0.0000000000000D+00  0.0000000000000D+00
439  4.3800000000000D+00  0.0000000000000D+00  0.0000000000000D+00
440  4.3900000000000D+00  0.0000000000000D+00  0.0000000000000D+00
441  4.4000000000000D+00  0.0000000000000D+00  0.0000000000000D+00
442  4.4100000000000D+00  0.0000000000000D+00  0.0000000000000D+00
443  4.4200000000000D+00  0.0000000000000D+00  0.0000000000000D+00