<?xml version="1.0" encoding="UTF-8" ?>
<psml version="1.1" energy_unit="hartree" length_unit="bohr"
 uuid="c6eac290-4706-11e8-7831-fcb9ebbb9de0"
 xmlns="http://esl.cecam.org/PSML/ns/1.1">
<provenance creator="ONCVPSP-3.3.0+psml-3.3.0-73 (fully-relativistic)"
 date="2018-04-23">
<annotation action="semilocal-pseudopotential-generation"
 action-cont="projectors-generation" />
<input-file name="oncvpsp-input">
<![CDATA[# atsym z nc nv iexc psfile
Au 79 10 4 4 both
# n l f
1 0 2.0
2 0 2.0
2 1 6.0
3 0 2.0
3 1 6.0
3 2 10.0
4 0 2.0
4 1 6.0
4 2 10.0
4 3 14.0
5 0 2.0
5 1 6.0
5 2 10.0
6 0 1.0
# lmax
3
# l rc ep ncon nbas qcut
0 1.45 0.0 4 8 8.6
1 1.55 0.0 4 8 8.4
2 1.55 0.0 4 8 8.4
3 1.6  0.1 4 8 6.8
# lloc lpopt rc5 dvloc0
4 3 1.4 0.0
# l nproj debl
0 2 1.0
1 2 2.5
2 2 1.5
3 1 1.5
# icmod fcfact rcfact
3 5.0 1.37
# epsh1 epsh2 depsh
-14.0 12.0 0.02
# rlmax drl
5.0 0.01
 0
]]>
</input-file>
</provenance>
<pseudo-atom-spec atomic-label="Au" atomic-number="79" z-pseudo="19"
 flavor="Hamann&apos;s oncvpsp" relativity="dirac" spin-dft="no"
 core-corrections="yes">
<annotation pseudo-energy="-137.948605529" />
<exchange-correlation>
<annotation oncvpsp-xc-code="4" oncvpsp-xc-type="GGA -- Perdew-Burke-Ernzerhof" />
<libxc-info number-of-functionals="2">
<functional name="Perdew, Burke &amp; Ernzerhof (GGA)" type="exchange" id="101" />
<functional name="Perdew, Burke &amp; Ernzerhof (GGA)" type="correlation"
 id="130" />
</libxc-info>
</exchange-correlation>
<valence-configuration total-valence-charge="19">
<shell n="5" l="s" occupation="2" />
<shell n="5" l="p" occupation="6" />
<shell n="5" l="d" occupation="10" />
<shell n="6" l="s" occupation="1" />
</valence-configuration>
</pseudo-atom-spec>
<grid npts="457">
<annotation type="sampled from oncvpsp log grid"
 recipe="r(i:1..N) = r1*exp(a*(i-1)) + r=0; resampled"
 recipe-cont="r1: scale; a: step" scale="0.632911392405E-05"
 step="0.119285708653E-01" delta="0.500000000000E-02" rmax="44.1367072872" />
<grid-data>
  0.000000000000E+00  5.039992789998E-03  1.006699007359E-02  1.510209039707E-02
  2.010802264298E-02  2.522313725547E-02  3.052722328344E-02  3.564790122404E-02
  4.113392158581E-02  4.634525124339E-02  5.159764181868E-02  5.676412574402E-02
  6.244793091137E-02  6.788622215170E-02  7.292303175120E-02  7.833354679692E-02
  8.414549431680E-02  8.931685626691E-02  9.480603659383E-02  1.006325675835E-01
  1.068171819253E-01  1.120374372382E-01  1.175128112974E-01  1.232557719939E-01
  1.292793965363E-01  1.355974012286E-01  1.422241727032E-01  1.474059295265E-01
  1.527764770685E-01  1.583426936788E-01  1.641117083111E-01  1.700909096533E-01
  1.762879555909E-01  1.827107830146E-01  1.893676179856E-01  1.962669862713E-01
  2.034177242645E-01  2.108289903007E-01  2.159192454425E-01  2.211323997045E-01
  2.264714203629E-01  2.319393463362E-01  2.375392899141E-01  2.432744385298E-01
  2.491480565737E-01  2.551634872516E-01  2.613241544878E-01  2.676335648737E-01
  2.740953096641E-01  2.807130668206E-01  2.874906031059E-01  2.944317762273E-01
  3.015405370325E-01  3.088209317586E-01  3.162771043350E-01  3.239132987421E-01
  3.317338614269E-01  3.397432437772E-01  3.479460046550E-01  3.563468129913E-01
  3.649504504442E-01  3.737618141197E-01  3.827859193598E-01  3.920279025969E-01
  4.014930242772E-01  4.111866718553E-01  4.211143628606E-01  4.261677352149E-01
  4.312817480375E-01  4.364571290139E-01  4.416946145621E-01  4.469949499368E-01
  4.523588893361E-01  4.577871960081E-01  4.632806423602E-01  4.688400100685E-01
  4.744660901894E-01  4.801596832716E-01  4.859215994709E-01  4.917526586645E-01
  4.976536905685E-01  5.036255348553E-01  5.096690412736E-01  5.157850697689E-01
  5.219744906061E-01  5.282381844934E-01  5.345770427073E-01  5.409919672198E-01
  5.474838708264E-01  5.540536772764E-01  5.607023214037E-01  5.674307492605E-01
  5.742399182516E-01  5.811307972707E-01  5.881043668379E-01  5.951616192400E-01
  6.023035586708E-01  6.095312013749E-01  6.168455757914E-01  6.242477227009E-01
  6.317386953733E-01  6.393195597178E-01  6.469913944344E-01  6.547552911676E-01
  6.626123546616E-01  6.705637029176E-01  6.786104673526E-01  6.867537929608E-01
  6.949948384763E-01  7.033347765380E-01  7.117747938565E-01  7.203160913828E-01
  7.289598844794E-01  7.377074030931E-01  7.465598919302E-01  7.555186106334E-01
  7.645848339610E-01  7.737598519685E-01  7.830449701922E-01  7.924415098345E-01
  8.019508079525E-01  8.115742176479E-01  8.213131082597E-01  8.311688655588E-01
  8.411428919455E-01  8.512366066489E-01  8.614514459286E-01  8.717888632798E-01
  8.822503296391E-01  8.928373335948E-01  9.035513815979E-01  9.143939981771E-01
  9.253667261553E-01  9.364711268691E-01  9.477087803915E-01  9.590812857562E-01
  9.705902611853E-01  9.822373443195E-01  9.940241924514E-01  1.005952482761E+00
  1.018023912554E+00  1.030240199505E+00  1.042603081899E+00  1.055114318881E+00
  1.067775690708E+00  1.080588998996E+00  1.093556066984E+00  1.106678739788E+00
  1.119958884666E+00  1.133398391282E+00  1.146999171977E+00  1.160763162041E+00
  1.174692319985E+00  1.188788627825E+00  1.203054091359E+00  1.217490740455E+00
  1.232100629341E+00  1.246885836893E+00  1.261848466936E+00  1.276990648539E+00
  1.292314536321E+00  1.307822310757E+00  1.323516178486E+00  1.339398372628E+00
  1.355471153100E+00  1.371736806937E+00  1.388197648620E+00  1.404856020403E+00
  1.421714292648E+00  1.438774864160E+00  1.456040162530E+00  1.473512644480E+00
  1.491194796214E+00  1.509089133769E+00  1.527198203374E+00  1.545524581814E+00
  1.564070876796E+00  1.582839727318E+00  1.601833804046E+00  1.621055809694E+00
  1.640508479410E+00  1.660194581163E+00  1.680116916137E+00  1.700278319131E+00
  1.720681658961E+00  1.741329838868E+00  1.762225796934E+00  1.783372506498E+00
  1.804772976576E+00  1.826430252295E+00  1.848347415322E+00  1.870527584306E+00
  1.892973915318E+00  1.915689602301E+00  1.938677877529E+00  1.961942012059E+00
  1.985485316204E+00  2.009311139999E+00  2.033422873679E+00  2.057823948163E+00
  2.082517835541E+00  2.107508049567E+00  2.132798146162E+00  2.158391723916E+00
  2.184292424603E+00  2.210503933698E+00  2.237029980903E+00  2.263874340673E+00
  2.291040832761E+00  2.318533322755E+00  2.346355722628E+00  2.374511991299E+00
  2.403006135195E+00  2.431842208817E+00  2.461024315323E+00  2.490556607107E+00
  2.520443286392E+00  2.550688605829E+00  2.581296869099E+00  2.612272431528E+00
  2.643619700706E+00  2.675343137115E+00  2.707447254760E+00  2.739936621817E+00
  2.772815861279E+00  2.806089651614E+00  2.839762727434E+00  2.873839880163E+00
  2.908325958725E+00  2.943225870230E+00  2.978544580672E+00  3.014287115640E+00
  3.050458561028E+00  3.087064063760E+00  3.124108832526E+00  3.161598138516E+00
  3.199537316178E+00  3.237931763972E+00  3.276786945140E+00  3.316108388482E+00
  3.355901689143E+00  3.396172509413E+00  3.436926579526E+00  3.478169698480E+00
  3.519907734862E+00  3.562146627680E+00  3.604892387213E+00  3.648151095859E+00
  3.691928909009E+00  3.736232055918E+00  3.781066840589E+00  3.826439642676E+00
  3.872356918388E+00  3.918825201408E+00  3.965851103825E+00  4.013441317071E+00
  4.061602612876E+00  4.110341844231E+00  4.159665946361E+00  4.209581937718E+00
  4.260096920970E+00  4.311218084022E+00  4.362952701030E+00  4.415308133443E+00
  4.468291831044E+00  4.521911333016E+00  4.576174269013E+00  4.631088360241E+00
  4.686661420564E+00  4.742901357610E+00  4.799816173902E+00  4.857413967988E+00
  4.915702935604E+00  4.974691370832E+00  5.034387667282E+00  5.094800319289E+00
  5.155937923120E+00  5.217809178198E+00  5.280422888336E+00  5.343787962996E+00
  5.407913418552E+00  5.472808379575E+00  5.538482080130E+00  5.604943865091E+00
  5.672203191472E+00  5.740269629770E+00  5.809152865327E+00  5.878862699711E+00
  5.949409052108E+00  6.020801960733E+00  6.093051584262E+00  6.166168203273E+00
  6.240162221712E+00  6.315044168373E+00  6.390824698393E+00  6.467514594774E+00
  6.545124769911E+00  6.623666267150E+00  6.703150262356E+00  6.783588065504E+00
  6.864991122290E+00  6.947371015758E+00  7.030739467947E+00  7.115108341562E+00
  7.200489641661E+00  7.286895517361E+00  7.374338263569E+00  7.462830322732E+00
  7.552384286605E+00  7.643012898044E+00  7.734729052821E+00  7.827545801455E+00
  7.921476351072E+00  8.016534067285E+00  8.112732476092E+00  8.210085265805E+00
  8.308606288995E+00  8.408309564463E+00  8.509209279237E+00  8.611319790587E+00
  8.714655628075E+00  8.819231495611E+00  8.925062273559E+00  9.032163020841E+00
  9.140548977092E+00  9.250235564817E+00  9.361238391594E+00  9.473573252294E+00
  9.587256131321E+00  9.702303204897E+00  9.818730843356E+00  9.936555613476E+00
  1.005579428084E+01  1.017646381221E+01  1.029858137795E+01  1.042216435449E+01
  1.054723032674E+01  1.067379709066E+01  1.080188265575E+01  1.093150524762E+01
  1.106268331059E+01  1.119543551032E+01  1.132978073644E+01  1.146573810528E+01
  1.160332696254E+01  1.174256688610E+01  1.188347768873E+01  1.202607942099E+01
  1.217039237404E+01  1.231643708253E+01  1.246423432752E+01  1.261380513945E+01
  1.276517080113E+01  1.291835285074E+01  1.307337308495E+01  1.323025356197E+01
  1.338901660471E+01  1.354968480397E+01  1.371228102162E+01  1.387682839388E+01
  1.404335033460E+01  1.421187053862E+01  1.438241298508E+01  1.455500194090E+01
  1.472966196419E+01  1.490641790776E+01  1.508529492266E+01  1.526631846173E+01
  1.544951428327E+01  1.563490845467E+01  1.582252735613E+01  1.601239768440E+01
  1.620454645661E+01  1.639900101409E+01  1.659578902626E+01  1.679493849457E+01
  1.699647775651E+01  1.720043548959E+01  1.740684071546E+01  1.761572280405E+01
  1.782711147770E+01  1.804103681543E+01  1.825752925721E+01  1.847661960830E+01
  1.869833904360E+01  1.892271911212E+01  1.914979174147E+01  1.937958924237E+01
  1.961214431328E+01  1.984749004503E+01  2.008565992558E+01  2.032668784468E+01
  2.057060809882E+01  2.081745539600E+01  2.106726486076E+01  2.132007203909E+01
  2.157591290355E+01  2.183482385840E+01  2.209684174470E+01  2.236200384563E+01
  2.263034789178E+01  2.290191206648E+01  2.317673501128E+01  2.345485583142E+01
  2.373631410139E+01  2.402114987061E+01  2.430940366906E+01  2.460111651309E+01
  2.489632991124E+01  2.519508587018E+01  2.549742690062E+01  2.580339602343E+01
  2.611303677571E+01  2.642639321702E+01  2.674350993562E+01  2.706443205485E+01
  2.738920523951E+01  2.771787570238E+01  2.805049021081E+01  2.838709609334E+01
  2.872774124646E+01  2.907247414142E+01  2.942134383111E+01  2.977439995709E+01
  3.013169275657E+01  3.049327306965E+01  3.085919234649E+01  3.122950265464E+01
  3.160425668650E+01  3.198350776674E+01  3.236730985994E+01  3.275571757826E+01
  3.314878618920E+01  3.354657162347E+01  3.394913048295E+01  3.435652004875E+01
  3.476879828933E+01  3.518602386880E+01  3.560825615523E+01  3.603555522909E+01
  3.646798189184E+01  3.690559767454E+01  3.734846484664E+01  3.779664642480E+01
  3.825020618189E+01  3.870920865608E+01  3.917371915995E+01  3.964380378987E+01
  4.011952943535E+01  4.060096378857E+01  4.108817535403E+01  4.158123345828E+01
  4.208020825978E+01  4.258517075890E+01  4.309619280801E+01  4.361334712170E+01
  4.413670728716E+01
</grid-data>
</grid>
<valence-charge total-charge="19" is-unscreening-charge="yes"
 rescaled-to-z-pseudo="no">
<radfunc>
<data npts="457">
  1.860712149181E+00  1.862454650378E+00  1.867664004881E+00  1.876356463069E+00
  1.888445006914E+00  1.904345557068E+00  1.924619486027E+00  1.947847095218E+00
  1.976712669715E+00  2.007943237195E+00  2.043172388148E+00  2.081496305856E+00
  2.127857534124E+00  2.176328818745E+00  2.224802837282E+00  2.280702579659E+00
  2.345158556849E+00  2.406340079571E+00  2.475216605363E+00  2.552746221741E+00
  2.640003176602E+00  2.717616436219E+00  2.802904141320E+00  2.896611387034E+00
  2.999552034149E+00  3.112614079546E+00  3.236765160457E+00  3.337785630326E+00
  3.446111404918E+00  3.562249779014E+00  3.686739134496E+00  3.820149983692E+00
  3.963085845448E+00  4.116183895142E+00  4.280115317238E+00  4.455585274186E+00
  4.643332388229E+00  4.844127612704E+00  4.985634623406E+00  5.133540821902E+00
  5.288095618950E+00  5.449552812796E+00  5.618169860463E+00  5.794207005768E+00
  5.977926246362E+00  6.169590120468E+00  6.369460292413E+00  6.577795914348E+00
  6.794851739971E+00  7.020875964456E+00  7.256107763323E+00  7.500774501670E+00
  7.755088584101E+00  8.019243914951E+00  8.293411938088E+00  8.577737225819E+00
  8.872332587405E+00  9.177273669530E+00  9.492593023983E+00  9.818273622040E+00
  1.015424180079E+01  1.050035963421E+01  1.085641673131E+01  1.122212147609E+01
  1.159709173806E+01  1.198084510070E+01  1.237278867533E+01  1.257161372600E+01
  1.277220859313E+01  1.297446338251E+01  1.317825929594E+01  1.338346829668E+01
  1.358995277865E+01  1.379756524129E+01  1.400614797210E+01  1.421553273901E+01
  1.442554049505E+01  1.463598109785E+01  1.484665304666E+01  1.505734323995E+01
  1.526782675665E+01  1.547786666437E+01  1.568721385803E+01  1.589560693275E+01
  1.610277209468E+01  1.630842311389E+01  1.651226132339E+01  1.671397566875E+01
  1.691324281249E+01  1.710972729793E+01  1.730308177693E+01  1.749294730617E+01
  1.767895371655E+01  1.786072006015E+01  1.803785513928E+01  1.820995812183E+01
  1.837661924710E+01  1.853742062578E+01  1.869193713770E+01  1.883973743047E+01
  1.898038502146E+01  1.911343950538E+01  1.923845786883E+01  1.935499591247E+01
  1.946260978092E+01  1.956085759912E+01  1.964930121349E+01  1.972750803469E+01
  1.979505297777E+01  1.985152049444E+01  1.989650669057E+01  1.992962152093E+01
  1.995049105159E+01  1.995875977902E+01  1.995409299328E+01  1.993617917142E+01
  1.990473238555E+01  1.985949470845E+01  1.980023859854E+01  1.972676924426E+01
  1.963892684708E+01  1.953658882093E+01  1.941967188522E+01  1.928813402766E+01
  1.914197631288E+01  1.898124451231E+01  1.880603053121E+01  1.861647360882E+01
  1.841276126865E+01  1.819512999687E+01  1.796386562820E+01  1.771930342086E+01
  1.746182780411E+01  1.719187178488E+01  1.690991600275E+01  1.661648742614E+01
  1.631215768629E+01  1.599754104934E+01  1.567329203143E+01  1.534010266578E+01
  1.499869943528E+01  1.464983988868E+01  1.429430896275E+01  1.393291503720E+01
  1.356648575295E+01  1.319586362828E+01  1.282190151064E+01  1.244545790444E+01
  1.206739221785E+01  1.168855997304E+01  1.130980802515E+01  1.093196983610E+01
  1.055586084847E+01  1.018227400401E+01  9.811975449484E+00  9.445700470288E+00
  9.084149689480E+00  8.727985566342E+00  8.377829224938E+00  8.034257638935E+00
  7.697801194575E+00  7.368941649105E+00  7.048110497315E+00  6.735687754139E+00
  6.432001156598E+00  6.137325783801E+00  5.851884089290E+00  5.575846335718E+00
  5.309331417853E+00  5.052408056619E+00  4.805096345188E+00  4.567369881345E+00
  4.339159135495E+00  4.120355403071E+00  3.910812664202E+00  3.710349751084E+00
  3.518752631936E+00  3.335778325042E+00  3.161164726433E+00  2.994643729863E+00
  2.835943902204E+00  2.684791302523E+00  2.540911333193E+00  2.404030019991E+00
  2.273875213188E+00  2.150177648364E+00  2.032671879102E+00  1.921097089056E+00
  1.815197790476E+00  1.714724417359E+00  1.619433820223E+00  1.529089669967E+00
  1.443462778902E+00  1.362331345404E+00  1.285481129592E+00  1.212705566693E+00
  1.143805824567E+00  1.078590811522E+00  1.016877140245E+00  9.584890533121E-01
  9.032583153829E-01  8.510240768471E-01  8.016327133138E-01  7.549376449948E-01
  7.107991396821E-01  6.690841026896E-01  6.296658568026E-01  5.924239149710E-01
  5.572437481898E-01  5.240165507298E-01  4.926390046227E-01  4.630130450608E-01
  4.350456281424E-01  4.086485021896E-01  3.837379836682E-01  3.602347385664E-01
  3.380635699317E-01  3.171532121162E-01  2.974361321585E-01  2.788483386095E-01
  2.613291980134E-01  2.448212591617E-01  2.292700851637E-01  2.146240933089E-01
  2.008344026403E-01  1.878546891093E-01  1.756410481434E-01  1.641518644259E-01
  1.533476886600E-01  1.431911210708E-01  1.336467013826E-01  1.246808049992E-01
  1.162615451093E-01  1.083586804330E-01  1.009435283285E-01  9.398888297807E-02
  8.746893837537E-02  8.135921584498E-02  7.563649582816E-02  7.027875367908E-02
  6.526509922343E-02  6.057571984075E-02  5.619182684156E-02  5.209560492175E-02
  4.827016448013E-02  4.469949661132E-02  4.136843057760E-02  3.826259358720E-02
  3.536837271237E-02  3.267287879220E-02  3.016391217556E-02  2.782993017006E-02
  2.566001607334E-02  2.364384967289E-02  2.177167911027E-02  2.003429401540E-02
  1.842299982492E-02  1.692959320777E-02  1.554633852862E-02  1.426594528767E-02
  1.308154648189E-02  1.198667783931E-02  1.097525788355E-02  1.004156879082E-02
  9.180238006430E-03  8.386220591280E-03  7.654782272732E-03  6.981483176668E-03
  6.362162220191E-03  5.792922146236E-03  5.270115182875E-03  4.790329311293E-03
  4.350375127193E-03  3.947273280963E-03  3.578242482231E-03  3.240688054548E-03
  2.932191025886E-03  2.650497740452E-03  2.393509977063E-03  2.159275559008E-03
  1.945979439931E-03  1.751935249976E-03  1.575577286043E-03  1.415452929743E-03
  1.270215476422E-03  1.138617358430E-03  1.019503745793E-03  9.118065074292E-04
  8.145385161879E-04  7.267882812189E-04  6.477148914558E-04  5.765432544069E-04
  5.125596149404E-04  4.551073392295E-04  4.035829496513E-04  3.574323970528E-04
  3.161475574405E-04  2.792629408220E-04  2.463526005937E-04  2.170272325296E-04
  1.909314530603E-04  1.677412471512E-04  1.471615766614E-04  1.289241406150E-04
  1.127852793163E-04  9.852401470654E-05  8.594021978324E-05  7.485291028668E-05
  6.509865220905E-05  5.653007899417E-05  4.901451258135E-05  4.243268270407E-05
  3.667753908895E-05  3.165315141544E-05  2.727369209577E-05  2.346249712076E-05
  2.015120039360E-05  1.727893714209E-05  1.479161216317E-05  1.264122881358E-05
  1.078527481702E-05  9.186161115090E-06  7.810710143752E-06  6.629690072889E-06
  5.617391701140E-06  4.751244853378E-06  4.011471282757E-06  3.380771233260E-06
  2.844040971586E-06  2.388118748501E-06  2.001556799012E-06  1.674417137235E-06
  1.398089045166E-06  1.165126294233E-06  9.691022739047E-07  8.044813325529E-07
  6.665047616010E-07  5.510899746193E-07  4.547415481037E-07  3.744729000385E-07
  3.077374858751E-07  2.523684891854E-07  2.065260759559E-07  1.686513673212E-07
  1.374263655702E-07  1.117391426210E-07  9.065366900829E-08  7.338372494512E-08
  5.927039342737E-08  4.776268886349E-08  3.840092359140E-08  3.080245913513E-08
  2.464952942239E-08  1.967885969262E-08  1.567283773806E-08  1.245202369738E-08
  9.868811117361E-09  7.802075659886E-09  6.152668896603E-09  4.839633328996E-09
  3.797031312923E-09  2.971295157064E-09  2.319018495014E-09  1.805120278620E-09
  1.401322570772E-09  1.084891881476E-09  8.376012315790E-10  6.448765720424E-10
  4.950967495637E-10  3.790209972637E-10  2.893220372753E-10  2.202063960247E-10
  1.671065293401E-10  1.264319015484E-10  9.536832091479E-11  7.171665679197E-11
  5.376359898754E-11  4.017840820283E-11  2.993068150541E-11  2.212418989951E-11
  1.637850382553E-11  1.208496181185E-11  8.239883648991E-12  6.047191644744E-12
  4.422778151814E-12  3.223500161622E-12  2.341172822562E-12  1.694315867348E-12
  1.221777340381E-12  8.778250349176E-13  6.283813030398E-13  4.481453476049E-13
  3.184018518665E-13  2.253584255668E-13  1.588889733551E-13  1.115874715518E-13
  7.805820491879E-14  5.438543420535E-14  3.773868623935E-14  2.608014808582E-14
  1.794862273454E-14  1.230066087757E-14  8.394216698001E-15  5.703799211151E-15
  3.858853033173E-15  2.599199218603E-15  1.742951498818E-15  1.163515698864E-15
  7.731734395102E-16  5.114174894689E-16  3.367007957810E-16  2.206268075137E-16
  1.438776534570E-16  9.337366247165E-17  6.030123020712E-17  3.875012554170E-17
  2.477646576629E-17  1.576153880542E-17  9.975265467888E-18  6.280442516541E-18
  3.933406921262E-18  2.450376935363E-18  1.518289206462E-18  9.356330911056E-19
  5.733999257012E-19  3.494474436436E-19  2.117625300452E-19  1.275938857022E-19
  7.643534495207E-20  4.552101856798E-20  2.694960874793E-20  1.585932484298E-20
  9.276352251652E-21  5.392599339933E-21  3.115411884818E-21  0.000000000000E+00
  0.000000000000E+00  0.000000000000E+00  0.000000000000E+00  0.000000000000E+00
  0.000000000000E+00  0.000000000000E+00  0.000000000000E+00  0.000000000000E+00
  0.000000000000E+00  0.000000000000E+00  0.000000000000E+00  0.000000000000E+00
  0.000000000000E+00  0.000000000000E+00  0.000000000000E+00  0.000000000000E+00
  0.000000000000E+00  0.000000000000E+00  0.000000000000E+00  0.000000000000E+00
  0.000000000000E+00
</data>
</radfunc>
</valence-charge>
<pseudocore-charge matching-radius="0.792441509834"
 number-of-continuous-derivatives="4">
<annotation model-charge-form="Teter function with specified parameters" />
<radfunc>
<data npts="275">
  9.900676557794E+01  9.900002418141E+01  9.897987204068E+01  9.894625187884E+01
  9.889950942109E+01  9.883804994251E+01  9.875972369877E+01  9.867003755775E+01
  9.855865824361E+01  9.843824793127E+01  9.830253809807E+01  9.815504669515E+01
  9.797681700230E+01  9.779070035310E+01  9.760480105842E+01  9.739070408800E+01
  9.714420521843E+01  9.691058994547E+01  9.664800779943E+01  9.635295681502E+01
  9.602153577739E+01  9.572731217537E+01  9.540460307914E+01  9.505075778977E+01
  9.466290142967E+01  9.423792079245E+01  9.377245039942E+01  9.339460217834E+01
  9.299030759920E+01  9.255784188672E+01  9.209538719194E+01  9.160103067470E+01
  9.107276312315E+01  9.050847823508E+01  8.990597270294E+01  8.926294726454E+01
  8.857700890225E+01  8.784567439639E+01  8.733163299450E+01  8.679549507934E+01
  8.623646573005E+01  8.565373705469E+01  8.504648976076E+01  8.441389496823E+01
  8.375511628586E+01  8.306931217258E+01  8.235563860667E+01  8.161325208596E+01
  8.084131298322E+01  8.003898928092E+01  7.920546071008E+01  7.833992331767E+01
  7.744159448653E+01  7.650971843122E+01  7.554357219161E+01  7.454247214454E+01
  7.350578105114E+01  7.243291565443E+01  7.132335483785E+01  7.017664835035E+01
  6.899242609791E+01  6.777040799422E+01  6.651041435498E+01  6.521237681058E+01
  6.387634970075E+01  6.250252190212E+01  6.109122902500E+01  6.037168125113E+01
  5.964296589981E+01  5.890517178338E+01  5.815839925536E+01  5.740276060867E+01
  5.663838047168E+01  5.586539620081E+01  5.508395826826E+01  5.429423064335E+01
  5.349639116582E+01  5.269063190952E+01  5.187715953446E+01  5.105619562553E+01
  5.022797701563E+01  4.939275609123E+01  4.855080107803E+01  4.770239630442E+01
  4.684784244027E+01  4.598745670839E+01  4.512157306615E+01  4.425054235448E+01
  4.337473241130E+01  4.249452814659E+01  4.161033157608E+01  4.072256181041E+01
  3.983165499691E+01  3.893806421051E+01  3.804225929097E+01  3.714472662303E+01
  3.624596885642E+01  3.534650456263E+01  3.444686782529E+01  3.354760776129E+01
  3.264928796970E+01  3.175248590566E+01  3.085779217685E+01  2.996580975999E+01
  2.907715313527E+01  2.819244733689E+01  2.731232691795E+01  2.643743482868E+01
  2.556842120706E+01  2.470594208129E+01  2.385065798446E+01  2.300323248175E+01
  2.216433061135E+01  2.133461724105E+01  2.051475534262E+01  1.970540418734E+01
  1.890721746641E+01  1.812084134091E+01  1.734691242678E+01  1.658605572113E+01
  1.583888247707E+01  1.510598803515E+01  1.438794962045E+01  1.368532411528E+01
  1.299864581836E+01  1.232842420228E+01  1.167514168203E+01  1.103925140810E+01
  1.042117509865E+01  9.821300925954E+00  9.239981472995E+00  8.677531776764E+00
  8.134227475335E+00  7.610303076149E+00  7.105950363218E+00  6.621316961096E+00
  6.156505073355E+00  5.711570413112E+00  5.286521342646E+00  4.881318238529E+00
  4.495873097743E+00  4.130049399148E+00  3.783662233255E+00  3.456478711575E+00
  3.148218664939E+00  2.858555637954E+00  2.587118184329E+00  2.333491465125E+00
  2.097219149031E+00  1.877805610618E+00  1.674718419229E+00  1.487391107615E+00
  1.315226205861E+00  1.157598522440E+00  1.013858650552E+00  8.833366742010E-01
  7.653460449325E-01  6.591875967243E-01  5.641536633727E-01  4.795322598592E-01
  4.046112867257E-01  3.386827144887E-01  2.810467036728E-01  2.310156151995E-01
  1.879178657061E-01  1.511015829360E-01  1.199380176927E-01  9.382467101122E-02
  7.218809819079E-02  5.448635515508E-02  4.021105723383E-02  2.888902585695E-02
  2.008350474917E-02  1.339493392517E-02  8.461276996633E-03  4.957904881624E-03
  2.597046794264E-03  1.126827215279E-03  3.299152099464E-04  2.181976834150E-05
  4.887158620029E-05  2.859376771901E-04  6.339202104590E-04  1.017094818239E-03
  1.380346157509E-03  1.686359609180E-03  1.912827568833E-03  2.049726781333E-03
  2.096719606149E-03  2.060727034946E-03  1.953714840325E-03  1.790726594583E-03
  1.588188695443E-03  1.362503256654E-03  1.128935091058E-03  9.007893872655E-04
  6.888674291080E-04  5.011791990122E-04  3.428842931040E-04  2.164265705561E-04
  1.218236200861E-04  5.706963783774E-05  1.860977168587E-05  1.845398800743E-06
  1.633065135445E-06  1.274472433845E-05  3.026317124083E-05  4.989379174046E-05
  6.818150528870E-05  8.262958120380E-05  9.172438300764E-05  9.487658033556E-05
  9.229457021669E-05  8.480946391806E-05  7.367283366693E-05  6.034842122156E-05
  4.631727545033E-05  3.291253540916E-05  2.119565824872E-05  1.188075205858E-05
  5.308314001718E-06  1.464607118540E-06  3.861130202971E-08  5.053470434945E-07
  2.222661087558E-06  4.528392639138E-06  6.826149919776E-06  8.650498042088E-06
  9.705828167048E-06  9.877083492034E-06  9.214354851934E-06  7.896642007458E-06
  6.182402736676E-06  4.355613913465E-06  2.675854203193E-06  1.339482462512E-06
  4.566005940127E-07  4.556179879064E-08  0.000000000000E+00  0.000000000000E+00
  0.000000000000E+00  0.000000000000E+00  0.000000000000E+00  0.000000000000E+00
  0.000000000000E+00  0.000000000000E+00  0.000000000000E+00  0.000000000000E+00
  0.000000000000E+00  0.000000000000E+00  0.000000000000E+00  0.000000000000E+00
  0.000000000000E+00  0.000000000000E+00  0.000000000000E+00  0.000000000000E+00
  0.000000000000E+00  0.000000000000E+00  0.000000000000E+00  0.000000000000E+00
  0.000000000000E+00  0.000000000000E+00  0.000000000000E+00  0.000000000000E+00
  0.000000000000E+00  0.000000000000E+00  0.000000000000E+00  0.000000000000E+00
  0.000000000000E+00  0.000000000000E+00  0.000000000000E+00  0.000000000000E+00
  0.000000000000E+00  0.000000000000E+00  0.000000000000E+00
</data>
</radfunc>
</pseudocore-charge>
<semilocal-potentials set="scalar_relativistic">
<slps n="5" l="s" rc="1.45604016253">
<radfunc>
<data npts="275">
 -5.930298010261E+00 -5.934049461249E+00 -5.945257992586E+00 -5.963938430775E+00
 -5.989870751846E+00 -6.023898583113E+00 -6.067151086714E+00 -6.116520620531E+00
 -6.177600885305E+00 -6.243347852434E+00 -6.317095022851E+00 -6.396822486497E+00
 -6.492583968444E+00 -6.591909612536E+00 -6.690439066220E+00 -6.803080041849E+00
 -6.931675489807E+00 -7.052483048064E+00 -7.187046734044E+00 -7.336725682208E+00
 -7.502961193101E+00 -7.648886052810E+00 -7.807179409495E+00 -7.978664242894E+00
 -8.164175022215E+00 -8.364548509383E+00 -8.580612630238E+00 -8.753443736478E+00
 -8.935881839728E+00 -9.128237965508E+00 -9.330802693442E+00 -9.543841235801E+00
 -9.767588137953E+00 -1.000224162888E+01 -1.024795766200E+01 -1.050484369937E+01
 -1.077295230621E+01 -1.105227463599E+01 -1.124468443972E+01 -1.144200466482E+01
 -1.164417892841E+01 -1.185113452004E+01 -1.206278163189E+01 -1.227901262932E+01
 -1.249970136989E+01 -1.272470257816E+01 -1.295385128375E+01 -1.318696232976E+01
 -1.342382995791E+01 -1.366422747644E+01 -1.390790701559E+01 -1.415459937503E+01
 -1.440401396606E+01 -1.465583885054E+01 -1.490974087694E+01 -1.516536591284E+01
 -1.542233917152E+01 -1.568026562888E+01 -1.593873052577E+01 -1.619729994901E+01
 -1.645552148361E+01 -1.671292492714E+01 -1.696902305660E+01 -1.722331243726E+01
 -1.747527426240E+01 -1.772437521300E+01 -1.797006832634E+01 -1.809146250105E+01
 -1.821179386303E+01 -1.833099058896E+01 -1.844898016298E+01 -1.856568940224E+01
 -1.868104448204E+01 -1.879497096049E+01 -1.890739380261E+01 -1.901823740396E+01
 -1.912742561373E+01 -1.923488175732E+01 -1.934052865845E+01 -1.944428866080E+01
 -1.954608364923E+01 -1.964583507073E+01 -1.974346395500E+01 -1.983889093497E+01
 -1.993203626718E+01 -2.002281985227E+01 -2.011116125560E+01 -2.019697972830E+01
 -2.028019422882E+01 -2.036072344510E+01 -2.043848581779E+01 -2.051339956449E+01
 -2.058538270538E+01 -2.065435309041E+01 -2.072022842842E+01 -2.078292631829E+01
 -2.084236428258E+01 -2.089845980379E+01 -2.095113036368E+01 -2.100029348587E+01
 -2.104586678204E+01 -2.108776800207E+01 -2.112591508848E+01 -2.116022623537E+01
 -2.119061995233E+01 -2.121701513346E+01 -2.123933113198E+01 -2.125748784065E+01
 -2.127140577824E+01 -2.128100618243E+01 -2.128621110934E+01 -2.128694354003E+01
 -2.128312749410E+01 -2.127468815070E+01 -2.126155197722E+01 -2.124364686580E+01
 -2.122090227791E+01 -2.119324939726E+01 -2.116062129132E+01 -2.112295308153E+01
 -2.108018212279E+01 -2.103224819234E+01 -2.097909368850E+01 -2.092066383988E+01
 -2.085690692551E+01 -2.078777450671E+01 -2.071322167156E+01 -2.063320729313E+01
 -2.054769430273E+01 -2.045664997977E+01 -2.036004626035E+01 -2.025786006672E+01
 -2.015007366066E+01 -2.003667502396E+01 -1.991765827018E+01 -1.979302409242E+01
 -1.966278025275E+01 -1.952694212002E+01 -1.938553326384E+01 -1.923858611404E+01
 -1.908614269610E+01 -1.892825545531E+01 -1.876498818388E+01 -1.859641706765E+01
 -1.842263187161E+01 -1.824373728585E+01 -1.805985445674E+01 -1.787112273109E+01
 -1.767770164438E+01 -1.747977318743E+01 -1.727754438933E+01 -1.707125025712E+01
 -1.686115711568E+01 -1.664756639281E+01 -1.643081889506E+01 -1.621129961888E+01
 -1.598944313776E+01 -1.576573959963E+01 -1.554074135766E+01 -1.531507024175E+01
 -1.508942545547E+01 -1.486459205358E+01 -1.464144991704E+01 -1.442098309474E+01
 -1.420428932476E+01 -1.399258948239E+01 -1.378723663044E+01 -1.358972427335E+01