<?xml version="1.0" encoding="UTF-8" ?>
<psml version="1.1" energy_unit="hartree" length_unit="bohr"
 uuid="84dd61f0-4710-11e8-7225-e8527feab16a"
 xmlns="http://esl.cecam.org/PSML/ns/1.1">
<provenance creator="ONCVPSP-3.3.0+psml-3.3.0-73 (fully-relativistic)"
 date="2018-04-23">
<annotation action="semilocal-pseudopotential-generation"
 action-cont="projectors-generation" />
<input-file name="oncvpsp-input">
<![CDATA[# atsym z nc nv iexc psfile
P 15 3 2 4 both
# n l f
1 0 2.0
2 0 2.0
2 1 6.0
3 0 2.0
3 1 3.0
# lmax
2
# l rc ep ncon nbas qcut
0 1.45 0.0 4 9 6.2
1 1.55 0.0 4 9 6.6
2 1.7 0.05 4 9 6.6
# lloc lpopt rc5 dvloc0
4 5 1.45 0.0
# l nproj debl
0 2 3.0
1 2 2.5
2 2 2.0
# icmod fcfact rcfact
3 5.0 1.1
# epsh1 epsh2 depsh
-12.0 12.0 0.02
# rlmax drl
6.0 0.01
 0
]]>
</input-file>
</provenance>
<pseudo-atom-spec atomic-label="P" atomic-number="15" z-pseudo="5"
 flavor="Hamann&apos;s oncvpsp" relativity="dirac" spin-dft="no"
 core-corrections="yes">
<annotation pseudo-energy="-6.41105996693" />
<exchange-correlation>
<annotation oncvpsp-xc-code="4" oncvpsp-xc-type="GGA -- Perdew-Burke-Ernzerhof" />
<libxc-info number-of-functionals="2">
<functional name="Perdew, Burke &amp; Ernzerhof (GGA)" type="exchange" id="101" />
<functional name="Perdew, Burke &amp; Ernzerhof (GGA)" type="correlation"
 id="130" />
</libxc-info>
</exchange-correlation>
<valence-configuration total-valence-charge="5">
<shell n="3" l="s" occupation="2" />
<shell n="3" l="p" occupation="3" />
</valence-configuration>
</pseudo-atom-spec>
<grid npts="457">
<annotation type="sampled from oncvpsp log grid"
 recipe="r(i:1..N) = r1*exp(a*(i-1)) + r=0; resampled"
 recipe-cont="r1: scale; a: step" scale="0.333333333333E-04"
 step="0.119285708653E-01" delta="0.500000000000E-02" rmax="44.2837637062" />
<grid-data>
  0.000000000000E+00  5.056785236402E-03  1.010053166746E-02  1.515240813643E-02
  2.017501934448E-02  2.530717669722E-02  3.062893508784E-02  3.576667430480E-02
  4.078159407628E-02  4.594828673528E-02  5.115568860978E-02  5.627791965710E-02
  6.191304089543E-02  6.730475112585E-02  7.316599957938E-02  7.859454159214E-02
  8.442585358759E-02  8.961444568504E-02  9.512191507908E-02  1.009678591341E-01
  1.071730796174E-01  1.124107279825E-01  1.179043451086E-01  1.236664404276E-01
  1.297101347195E-01  1.360491899885E-01  1.426980408012E-01  1.478970624059E-01
  1.532855037496E-01  1.588702660996E-01  1.646585021619E-01  1.706576252426E-01
  1.768753187418E-01  1.833195459948E-01  1.899985604706E-01  1.969209163432E-01
  2.040954794468E-01  2.115314386309E-01  2.166386536853E-01  2.218691773398E-01
  2.272259867575E-01  2.327121309818E-01  2.383307326722E-01  2.440849898819E-01
  2.499781778776E-01  2.560136510042E-01  2.621948445941E-01  2.685252769220E-01
  2.750085512080E-01  2.816483576683E-01  2.884484756159E-01  2.954127756112E-01
  3.025452216655E-01  3.098498734974E-01  3.173308888431E-01  3.249925258234E-01
  3.328391453668E-01  3.408752136926E-01  3.491053048520E-01  3.575341033323E-01
  3.661664067232E-01  3.750071284471E-01  3.840613005563E-01  3.933340765969E-01
  4.028307345423E-01  4.125566797971E-01  4.225174482741E-01  4.275876576534E-01
  4.327187095452E-01  4.379113340598E-01  4.431662700685E-01  4.484842653093E-01
  4.538660764930E-01  4.593124694110E-01  4.648242190439E-01  4.704021096724E-01
  4.760469349885E-01  4.817594982083E-01  4.875406121868E-01  4.933910995331E-01
  4.993117927275E-01  5.053035342402E-01  5.113671766511E-01  5.175035827709E-01
  5.237136257642E-01  5.299981892733E-01  5.363581675446E-01  5.427944655551E-01
  5.493079991418E-01  5.558996951315E-01  5.625704914731E-01  5.693213373708E-01
  5.761531934192E-01  5.830670317402E-01  5.900638361211E-01  5.971446021546E-01
  6.043103373804E-01  6.115620614290E-01  6.189008061661E-01  6.263276158401E-01
  6.338435472302E-01  6.414496697970E-01  6.491470658345E-01  6.569368306246E-01
  6.648200725921E-01  6.727979134632E-01  6.808714884247E-01  6.890419462858E-01
  6.973104496412E-01  7.056781750369E-01  7.141463131374E-01  7.227160688950E-01
  7.313886617218E-01  7.401653256624E-01  7.490473095704E-01  7.580358772852E-01
  7.671323078126E-01  7.763378955064E-01  7.856539502525E-01  7.950817976555E-01
  8.046227792274E-01  8.142782525781E-01  8.240495916090E-01  8.339381867083E-01
  8.439454449488E-01  8.540727902882E-01  8.643216637717E-01  8.746935237370E-01
  8.851898460218E-01  8.958121241741E-01  9.065618696641E-01  9.174406121001E-01
  9.284498994453E-01  9.395912982387E-01  9.508663938175E-01  9.622767905433E-01
  9.738241120299E-01  9.855100013742E-01  9.973361213907E-01  1.009304154847E+00
  1.021415804706E+00  1.033672794362E+00  1.046076867894E+00  1.058629790309E+00
  1.071333347793E+00  1.084189347966E+00  1.097199620142E+00  1.110366015584E+00
  1.123690407771E+00  1.137174692664E+00  1.150820788976E+00  1.164630638444E+00
  1.178606206105E+00  1.192749480578E+00  1.207062474345E+00  1.221547224037E+00
  1.236205790726E+00  1.251040260214E+00  1.266052743337E+00  1.281245376257E+00
  1.296620320772E+00  1.312179764621E+00  1.327925921797E+00  1.343861032858E+00
  1.359987365253E+00  1.376307213636E+00  1.392822900199E+00  1.409536775002E+00
  1.426451216302E+00  1.443568630897E+00  1.460891454468E+00  1.478422151922E+00
  1.496163217745E+00  1.514117176358E+00  1.532286582474E+00  1.550674021464E+00
  1.569282109721E+00  1.588113495038E+00  1.607170856978E+00  1.626456907262E+00
  1.645974390149E+00  1.665726082831E+00  1.685714795825E+00  1.705943373375E+00
  1.726414693855E+00  1.747131670182E+00  1.768097250224E+00  1.789314417227E+00
  1.810786190233E+00  1.832515624516E+00  1.854505812010E+00  1.876759881754E+00
  1.899281000335E+00  1.922072372339E+00  1.945137240808E+00  1.968478887697E+00
  1.992100634350E+00  2.016005841962E+00  2.040197912065E+00  2.064680287010E+00
  2.089456450454E+00  2.114529927860E+00  2.139904286994E+00  2.165583138438E+00
  2.191570136099E+00  2.217868977732E+00  2.244483405465E+00  2.271417206331E+00
  2.298674212807E+00  2.326258303360E+00  2.354173403001E+00  2.382423483837E+00
  2.411012565643E+00  2.439944716430E+00  2.469224053028E+00  2.498854741664E+00
  2.528840998564E+00  2.559187090547E+00  2.589897335633E+00  2.620976103661E+00
  2.652427816905E+00  2.684256950708E+00  2.716468034116E+00  2.749065650526E+00
  2.782054438332E+00  2.815439091592E+00  2.849224360691E+00  2.883415053019E+00
  2.918016033655E+00  2.953032226059E+00  2.988468612772E+00  3.024330236125E+00
  3.060622198959E+00  3.097349665346E+00  3.134517861330E+00  3.172132075666E+00
  3.210197660574E+00  3.248720032501E+00  3.287704672891E+00  3.327157128966E+00
  3.367083014514E+00  3.407488010688E+00  3.448377866816E+00  3.489758401218E+00
  3.531635502032E+00  3.574015128057E+00  3.616903309594E+00  3.660306149309E+00
  3.704229823100E+00  3.748680580978E+00  3.793664747949E+00  3.839188724925E+00
  3.885258989624E+00  3.931882097499E+00  3.979064682669E+00  4.026813458861E+00
  4.075135220368E+00  4.124036843012E+00  4.173525285128E+00  4.223607588550E+00
  4.274290879612E+00  4.325582370168E+00  4.377489358610E+00  4.430019230913E+00
  4.483179461684E+00  4.536977615224E+00  4.591421346607E+00  4.646518402766E+00
  4.702276623599E+00  4.758703943083E+00  4.815808390400E+00  4.873598091084E+00
  4.932081268177E+00  4.991266243395E+00  5.051161438316E+00  5.111775375576E+00
  5.173116680083E+00  5.235194080244E+00  5.298016409207E+00  5.361592606117E+00
  5.425931717391E+00  5.491042897999E+00  5.556935412775E+00  5.623618637729E+00
  5.691102061381E+00  5.759395286118E+00  5.828508029551E+00  5.898450125906E+00
  5.969231527417E+00  6.040862305746E+00  6.113352653415E+00  6.186712885256E+00
  6.260953439879E+00  6.336084881157E+00  6.412117899731E+00  6.489063314528E+00
  6.566932074303E+00  6.645735259194E+00  6.725484082304E+00  6.806189891292E+00
  6.887864169988E+00  6.970518540027E+00  7.054164762508E+00  7.138814739658E+00
  7.224480516534E+00  7.311174282732E+00  7.398908374125E+00  7.487695274614E+00
  7.577547617910E+00  7.668478189325E+00  7.760499927597E+00  7.853625926728E+00
  7.947869437849E+00  8.043243871103E+00  8.139762797556E+00  8.237439951127E+00
  8.336289230540E+00  8.436324701307E+00  8.537560597722E+00  8.640011324895E+00
  8.743691460794E+00  8.848615758323E+00  8.954799147423E+00  9.062256737192E+00
  9.171003818039E+00  9.281055863855E+00  9.392428534221E+00  9.505137676632E+00
  9.619199328751E+00  9.734629720697E+00  9.851445277345E+00  9.969662620673E+00
  1.008929857212E+01  1.021037015499E+01  1.033289459685E+01  1.045688933201E+01
  1.058237200399E+01  1.070936046804E+01  1.083787279366E+01  1.096792726718E+01
  1.109954239439E+01  1.123273690312E+01  1.136752974596E+01  1.150394010291E+01
  1.164198738414E+01  1.178169123275E+01  1.192307152755E+01  1.206614838588E+01
  1.221094216651E+01  1.235747347251E+01  1.250576315418E+01  1.265583231203E+01
  1.280770229977E+01  1.296139472737E+01  1.311693146410E+01  1.327433464166E+01
  1.343362665736E+01  1.359483017725E+01  1.375796813938E+01  1.392306375705E+01
  1.409014052214E+01  1.425922220840E+01  1.443033287490E+01  1.460349686940E+01
  1.477873883184E+01  1.495608369782E+01  1.513555670219E+01  1.531718338262E+01
  1.550098958321E+01  1.568700145821E+01  1.587524547571E+01  1.606574842141E+01
  1.625853740247E+01  1.645363985130E+01  1.665108352952E+01  1.685089653187E+01
  1.705310729025E+01  1.725774457774E+01  1.746483751267E+01  1.767441556282E+01
  1.788650854958E+01  1.810114665217E+01  1.831836041200E+01  1.853818073694E+01
  1.876063890578E+01  1.898576657265E+01  1.921359577152E+01  1.944415892078E+01
  1.967748882783E+01  1.991361869377E+01  2.015258211809E+01  2.039441310351E+01
  2.063914606075E+01  2.088681581348E+01  2.113745760324E+01  2.139110709448E+01
  2.164780037961E+01  2.190757398417E+01  2.217046487198E+01  2.243651045044E+01
  2.270574857585E+01  2.297821755876E+01  2.325395616946E+01  2.353300364350E+01
  2.381539968722E+01  2.410118448347E+01  2.439039869727E+01  2.468308348163E+01
  2.497928048341E+01  2.527903184922E+01  2.558238023141E+01  2.588936879418E+01
  2.620004121971E+01  2.651444171435E+01  2.683261501492E+01  2.715460639510E+01
  2.748046167184E+01  2.781022721190E+01  2.814394993845E+01  2.848167733771E+01
  2.882345746576E+01  2.916933895535E+01  2.951937102281E+01  2.987360347509E+01
  3.023208671679E+01  3.059487175739E+01  3.096201021848E+01  3.133355434110E+01
  3.170955699319E+01  3.209007167711E+01  3.247515253724E+01  3.286485436768E+01
  3.325923262010E+01  3.365834341154E+01  3.406224353248E+01  3.447099045487E+01
  3.488464234032E+01  3.530325804841E+01  3.572689714499E+01  3.615561991073E+01
  3.658948734966E+01  3.702856119785E+01  3.747290393223E+01  3.792257877942E+01
  3.837764972477E+01  3.883818152147E+01  3.930423969972E+01  3.977589057612E+01
  4.025320126303E+01  4.073623967819E+01  4.122507455433E+01  4.171977544898E+01
  4.222041275437E+01  4.272705770742E+01  4.323978239991E+01  4.375865978871E+01
  4.428376370617E+01
</grid-data>
</grid>
<valence-charge total-charge="5" is-unscreening-charge="yes"
 rescaled-to-z-pseudo="no">
<radfunc>
<data npts="457">
  1.676453072816E-02  1.679418170640E-02  1.688283780590E-02  1.703081146066E-02
  1.723668046545E-02  1.750761568039E-02  1.785331404643E-02  1.824971344358E-02
  1.869611870678E-02  1.921763185415E-02  1.980667592005E-02  2.044838521384E-02
  2.122596349901E-02  2.204045271865E-02  2.300441332198E-02  2.397052207384E-02
  2.508724837594E-02  2.614998511418E-02  2.734961276880E-02  2.870408379542E-02
  3.023378983769E-02  3.159919959488E-02  3.310486075354E-02  3.476556102170E-02
  3.659772431588E-02  3.861960632800E-02  4.085151576183E-02  4.267678657666E-02
  4.464334436723E-02  4.676256197672E-02  4.904678719324E-02  5.150943301008E-02
  5.416507656739E-02  5.702956748238E-02  6.012014626753E-02  6.345557350157E-02
  6.705627034579E-02  7.094447087666E-02  7.370819847360E-02  7.661811979314E-02
  7.968238260129E-02  8.290961002073E-02  8.630892701416E-02  8.988998770414E-02
  9.366300340376E-02  9.763877119531E-02  1.018287028506E-01  1.062448538374E-01
  1.108999521001E-01  1.158074262410E-01  1.209814326569E-01  1.264368811119E-01
  1.321894581422E-01  1.382556476008E-01  1.446527475569E-01  1.513988826672E-01
  1.585130110397E-01  1.660149245120E-01  1.739252411755E-01  1.822653888915E-01
  1.910575784743E-01  2.003247651582E-01  2.100905969372E-01  2.203793483515E-01
  2.312158383243E-01  2.426253307058E-01  2.546334162718E-01  2.608699845495E-01
  2.672658750518E-01  2.738243138814E-01  2.805485180123E-01  2.874416891584E-01
  2.945070072934E-01  3.017476238181E-01  3.091666543720E-01  3.167671712872E-01
  3.245521956816E-01  3.325246891892E-01  3.406875453247E-01  3.490435804782E-01
  3.575955245360E-01  3.663460111215E-01  3.752975674462E-01  3.844526037631E-01
  3.938134024061E-01  4.033821063992E-01  4.131607076140E-01  4.231510344475E-01
  4.333547389898E-01  4.437732836409E-01  4.544079271327E-01  4.652597099031E-01
  4.763294387610E-01  4.876176707737E-01  4.991246963005E-01  5.108505210860E-01
  5.227948473225E-01  5.349570535799E-01  5.473361734988E-01  5.599308731370E-01
  5.727394268570E-01  5.857596916442E-01  5.989890797456E-01  6.124245295317E-01
  6.260624744907E-01  6.398988102861E-01  6.539288598290E-01  6.681473363495E-01
  6.825483044856E-01  6.971251394571E-01  7.118704844438E-01  7.267762063499E-01
  7.418333502086E-01  7.570320925607E-01  7.723616942288E-01  7.878104530037E-01
  8.033656568614E-01  8.190135384345E-01  8.347392315670E-01  8.505267308912E-01
  8.663588554620E-01  8.822172175818E-01  8.980821980235E-01  9.139329289252E-01
  9.297472856633E-01  9.455018890207E-01  9.611721189361E-01  9.767321410531E-01
  9.921549471684E-01  1.007412410510E+00  1.022475356552E+00  1.037313649800E+00
  1.051896296616E+00  1.066191563796E+00  1.080167112143E+00  1.093790143787E+00
  1.107027561521E+00  1.119846137859E+00  1.132212691016E+00  1.144094264515E+00
  1.155458306683E+00  1.166272845945E+00  1.176506657608E+00  1.186129417690E+00
  1.195111839518E+00  1.203425789047E+00  1.211044375423E+00  1.217942014109E+00
  1.224094460883E+00  1.229478816377E+00  1.234073502263E+00  1.237858212009E+00
  1.240813840888E+00  1.242922401930E+00  1.244166936378E+00  1.244531428965E+00
  1.244000739893E+00  1.242560566452E+00  1.240197447858E+00  1.236898826741E+00
  1.232653179872E+00  1.227450228884E+00  1.221281238996E+00  1.214139410004E+00
  1.206020359116E+00  1.196922689715E+00  1.186848634043E+00  1.175804751370E+00
  1.163802656860E+00  1.150859750474E+00  1.136999910413E+00  1.122253786650E+00
  1.106657627526E+00  1.090251235191E+00  1.073077831434E+00  1.055184710182E+00
  1.036622881262E+00  1.017445678921E+00  9.977065719646E-01  9.774586272361E-01
  9.567547278370E-01  9.356472357128E-01  9.141878678057E-01  8.924275459832E-01
  8.704162574591E-01  8.482029230532E-01  8.258352736887E-01  8.033597355303E-01
  7.808213240988E-01  7.582635476442E-01  7.357283199890E-01  7.132558829895E-01
  6.908847386939E-01  6.686515912079E-01  6.465912982113E-01  6.247368320101E-01
  6.031192499438E-01  5.817676739179E-01  5.607092787787E-01  5.399692892015E-01
  5.195709847269E-01  4.995357125406E-01  4.798829075670E-01  4.606301194194E-01
  4.417930457316E-01  4.233855713815E-01  4.054198131065E-01  3.879061690063E-01
  3.708533724252E-01  3.542685497113E-01  3.381572813530E-01  3.225236660046E-01
  3.073703869309E-01  2.926987803745E-01  2.785089054675E-01  2.647996151961E-01
  2.515686280453E-01  2.388125999337E-01  2.265271960802E-01  2.147071624665E-01
  2.033463965853E-01  1.924380171897E-01  1.819744327840E-01  1.719474086214E-01
  1.623481320006E-01  1.531672756751E-01  1.443950592155E-01  1.360213081865E-01
  1.280355110211E-01  1.204268735054E-01  1.131843707802E-01  1.062967968209E-01
  9.975281134650E-02  9.354098413380E-02  8.764983672679E-02  8.206788154360E-02
  7.678365839467E-02  7.178576843656E-02  6.706290559480E-02  6.260388549758E-02
  5.839767196910E-02  5.443340113827E-02  5.070040322380E-02  4.718822206220E-02
  4.388663244968E-02  4.078565537316E-02  3.787557120950E-02  3.514693097531E-02
  3.259056571301E-02  3.019759410145E-02  2.795942838184E-02  2.586777869192E-02
  2.391465590294E-02  2.209237305516E-02  2.039354548870E-02  1.881108976674E-02
  1.733822148795E-02  1.596845208440E-02  1.469558470028E-02  1.351370924472E-02
  1.241719671019E-02  1.140069284527E-02  1.045911126742E-02  9.587626098181E-03
  8.781664199256E-03  8.036897084039E-03  7.349232574669E-03  6.714806270382E-03
  6.129972888152E-03  5.591297532021E-03  5.095546942707E-03  4.639680774395E-03
  4.220842940946E-03  3.836353069195E-03  3.483698092566E-03  3.160524013960E-03
  2.864627862787E-03  2.593949867106E-03  2.346565858182E-03  2.120679921343E-03
  1.914617303808E-03  1.726817587231E-03  1.555828130043E-03  1.400297782208E-03
  1.258970872875E-03  1.130681469468E-03  1.014347905110E-03  9.089675698117E-04
  8.136119596865E-04  7.274219774513E-04  6.496034766865E-04  5.794230417403E-04
  5.162039947307E-04  4.593226208226E-04  4.082046028183E-04  3.623216560690E-04
  3.211883547862E-04  2.843591409788E-04  2.514255074523E-04  2.220133465618E-04
  1.957804567023E-04  1.724141988284E-04  1.516292956183E-04  1.331657662188E-04
  1.167869898282E-04  1.022778916801E-04  8.944324528622E-05  7.810608507684E-05
  6.810622383426E-05  5.929886956163E-05  5.155333665305E-05  4.475184644098E-05
  3.878841239183E-05  3.356780540165E-05  2.900459481405E-05  2.502226094270E-05
  2.155237503345E-05  1.853384274755E-05  1.591220738893E-05  1.363900923678E-05
  1.167119748069E-05  9.970591389590E-06  8.503387479061E-06  7.239709574638E-06
  6.153198800832E-06  5.220640658102E-06  4.421626481885E-06  3.738246709294E-06
  3.154813509881E-06  2.657610466519E-06  2.234667120745E-06  1.875556323216E-06
  1.571212454085E-06  1.313768699443E-06  1.096411688312E-06  9.132519094752E-07
  7.592084384996E-07  6.299066122074E-07  5.215873904792E-07  4.310272432949E-07
  3.554674942671E-07  2.925521404383E-07  2.402732517575E-07  1.969231323892E-07
  1.610524998640E-07  1.314340071094E-07  1.070304966845E-07  8.696743621163E-08
  7.050903918162E-08  5.703762618201E-08  4.603582832994E-08  3.707127748642E-08
  2.978346688442E-08  2.387250133302E-08  1.908948837791E-08  1.522835092022E-08
  1.211886803520E-08  9.620774300760E-09  7.618769048654E-09  6.018305787618E-09
  4.742048809157E-09  3.726898855306E-09  2.921502876862E-09  2.284174503186E-09
  1.781162033629E-09  1.385209688377E-09  1.074365655062E-09  8.309972588075E-10
  6.409794792835E-10  4.930281410735E-10  3.781535063657E-10  2.892137857791E-10
  2.205513301447E-10  1.676970414798E-10  1.271309062685E-10  9.608856287619E-11
  7.240551569328E-11  5.439204404747E-11  4.073306154835E-11  3.040819420159E-11
  2.262819206902E-11  1.678449442215E-11  1.240935388018E-11  9.144409615554E-12
  6.715999412108E-12  4.915828927841E-12  3.585885686911E-12  2.606705080989E-12
  1.888274448911E-12  1.363006253119E-12  9.803284711335E-13  7.025345834848E-13
  5.016111463085E-13  3.568213589460E-13  2.528711464862E-13  1.785224410345E-13
  1.255485060816E-13  8.794989367373E-14  6.136824707240E-14  4.264971068016E-14
  2.952103090688E-14  2.035020733313E-14  1.397032841891E-14  9.550435120532E-15
  6.501244055262E-15  4.406607824961E-15  2.973886597222E-15  1.998175795397E-15
  1.336623845062E-15  8.900769932659E-16  5.900178411441E-16  3.893121264056E-16
  2.556828637010E-16  1.671288918904E-16  1.087232872323E-16  7.038646806711E-17
  4.534455778566E-17  2.906723018344E-17  1.853944668727E-17  1.176453848422E-17
  0.000000000000E+00  0.000000000000E+00  0.000000000000E+00  0.000000000000E+00
  0.000000000000E+00  0.000000000000E+00  0.000000000000E+00  0.000000000000E+00
  0.000000000000E+00  0.000000000000E+00  0.000000000000E+00  0.000000000000E+00
  0.000000000000E+00  0.000000000000E+00  0.000000000000E+00  0.000000000000E+00
  0.000000000000E+00  0.000000000000E+00  0.000000000000E+00  0.000000000000E+00
  0.000000000000E+00  0.000000000000E+00  0.000000000000E+00  0.000000000000E+00
  0.000000000000E+00  0.000000000000E+00  0.000000000000E+00  0.000000000000E+00
  0.000000000000E+00  0.000000000000E+00  0.000000000000E+00  0.000000000000E+00
  0.000000000000E+00  0.000000000000E+00  0.000000000000E+00  0.000000000000E+00
  0.000000000000E+00
</data>
</radfunc>
</valence-charge>
<pseudocore-charge matching-radius="1.03367279436"
 number-of-continuous-derivatives="4">
<annotation model-charge-form="Teter function with specified parameters" />
<radfunc>
<data npts="290">
  6.343344115563E+00  6.342947730186E+00  6.341762798033E+00  6.339785914034E+00
  6.337037345821E+00  6.333423229282E+00  6.328817013855E+00  6.323542399045E+00
  6.317611529850E+00  6.310695022827E+00  6.302898706545E+00  6.294424369475E+00
  6.284182264120E+00  6.273484992594E+00  6.260865428264E+00  6.248261926156E+00
  6.233748336456E+00  6.219990697884E+00  6.204524142086E+00  6.187141245933E+00
  6.167610714105E+00  6.150267856694E+00  6.131241205624E+00  6.110373080875E+00
  6.087492252840E+00  6.062413037783E+00  6.034934391771E+00  6.012620699537E+00
  5.988737501536E+00  5.963181244803E+00  5.935842596257E+00  5.906606287623E+00
  5.875350986565E+00  5.841949200767E+00  5.806267222739E+00  5.768165124196E+00
  5.727496810144E+00  5.684110144083E+00  5.653597726665E+00  5.621758872807E+00
  5.588544356190E+00  5.553903973476E+00  5.517786620149E+00  5.480140379640E+00
  5.440912626966E+00  5.400050148165E+00  5.357499276874E+00  5.313206049464E+00
  5.267116380186E+00  5.219176257832E+00  5.169331965468E+00  5.117530324786E+00
  5.063718966662E+00  5.007846629483E+00  4.949863486774E+00  4.889721505600E+00
  4.827374837139E+00  4.762780240682E+00  4.695897542155E+00  4.626690128065E+00
  4.555125475479E+00  4.481175718331E+00  4.404818249972E+00  4.326036361386E+00
  4.244819913965E+00  4.161166045086E+00  4.075079904017E+00  4.031128718562E+00
  3.986575414802E+00  3.941423233208E+00  3.895676061878E+00  3.849338461941E+00
  3.802415693085E+00  3.754913739124E+00  3.706839333566E+00  3.658199985074E+00
  3.609004002765E+00  3.559260521254E+00  3.508979525336E+00  3.458171874229E+00
  3.406849325256E+00  3.355024556865E+00  3.302711190853E+00  3.249923813684E+00
  3.196677996760E+00  3.142990315500E+00  3.088878367095E+00  3.034360786766E+00
  2.979457262388E+00  2.924188547286E+00  2.868576471061E+00  2.812643948234E+00
  2.756414984561E+00  2.699914680795E+00  2.643169233724E+00  2.586205934288E+00
  2.529053162557E+00  2.471740379394E+00  2.414298114576E+00  2.356757951194E+00
  2.299152506103E+00  2.241515406258E+00  2.183881260704E+00  2.126285628065E+00
  2.068764979322E+00  2.011356655736E+00  1.954098821726E+00  1.897030412582E+00
  1.840191076863E+00  1.783621113371E+00  1.727361402621E+00  1.671453332711E+00
  1.615938719582E+00  1.560859721620E+00  1.506258748647E+00  1.452178365326E+00
  1.398661189092E+00  1.345749782721E+00  1.293486541717E+00  1.241913576739E+00
  1.191072591320E+00  1.141004755221E+00  1.091750573762E+00  1.043349753583E+00
  9.958410653031E-01  9.492622036242E-01  9.036496454854E-01  8.590385069244E-01
  8.154623993711E-01  7.729532861516E-01  7.315413400421E-01  6.912548027643E-01
  6.521198473681E-01  6.141604444948E-01  5.773982335565E-01  5.418523999057E-01
  5.075395590995E-01  4.744736493825E-01  4.426658335305E-01  4.121244111937E-01
  3.828547428749E-01  3.548591866550E-01  3.281370487420E-01  3.026845488750E-01
  2.784948015471E-01  2.555578139328E-01  2.338605013095E-01  2.133867206486E-01
  1.941173229231E-01  1.760302245290E-01  1.591004980600E-01  1.433004824875E-01
  1.285999126156E-01  1.149660674626E-01  1.023639370121E-01  9.075640654349E-02
  8.010445752089E-02  7.036738378307E-02  6.150302153788E-02  5.346799143375E-02
  4.621795075497E-02  3.970785357511E-02  3.389221650779E-02  2.872538752078E-02
  2.416181513305E-02  2.015631520017E-02  1.666433241526E-02  1.364219361599E-02
  1.104734999596E-02  8.838605374887E-03  6.976327789384E-03  5.422641825721E-03
  4.141599328993E-03  3.099326389002E-03  2.264144819836E-03  1.606666714463E-03
  1.099861062906E-03  7.190918663511E-04  4.421276521693E-04  2.491227870473E-04
  1.225714866715E-04  4.723591910350E-05  1.005028251814E-05  3.193301318401E-09
  8.001134302544E-06  2.671607225478E-05  5.042064563475E-05  7.481453836927E-05
  9.684578132471E-05  1.145307551846E-04  1.267766005418E-04  1.332095723230E-04
  1.340126079625E-04  1.297750176554E-04  1.213567598624E-04  1.097692490205E-04
  9.607407152578E-05  8.130037988982E-05  6.638111524453E-05  5.210759836078E-05
  3.910145289646E-05  2.780230503208E-05  1.846926264199E-05  1.119383346630E-05
  5.921710162437E-06  2.480740361324E-06  6.124158157293E-07  4.353890419993E-09
  3.214978886695E-07  1.234114505170E-06  2.441095710280E-06  3.687552513859E-06
  4.776189918048E-06  5.572444992807E-06  6.003822911072E-06  6.054251068939E-06
  5.754565862709E-06  5.170433591370E-06  4.389077573857E-06  3.506138077007E-06
  2.613839315290E-06  1.791396447776E-06  1.098290242256E-06  5.706981669156E-07
  2.210309100125E-07  4.021503206008E-08  2.114319316997E-09  6.931659637228E-08
  1.994425348607E-07  3.511612131959E-07  4.892158380157E-07  5.879540678013E-07
  6.330946545517E-07  6.217145018818E-07  5.606753767018E-07  4.638979444736E-07
  3.490098279208E-07  2.339311896395E-07  1.339147992942E-07  5.943850353098E-08
  1.517773945029E-08  9.276910348425E-11  0.000000000000E+00  0.000000000000E+00
  0.000000000000E+00  0.000000000000E+00  0.000000000000E+00  0.000000000000E+00
  0.000000000000E+00  0.000000000000E+00  0.000000000000E+00  0.000000000000E+00
  0.000000000000E+00  0.000000000000E+00  0.000000000000E+00  0.000000000000E+00
  0.000000000000E+00  0.000000000000E+00  0.000000000000E+00  0.000000000000E+00
  0.000000000000E+00  0.000000000000E+00  0.000000000000E+00  0.000000000000E+00
  0.000000000000E+00  0.000000000000E+00  0.000000000000E+00  0.000000000000E+00
  0.000000000000E+00  0.000000000000E+00  0.000000000000E+00  0.000000000000E+00
  0.000000000000E+00  0.000000000000E+00  0.000000000000E+00  0.000000000000E+00
  0.000000000000E+00  0.000000000000E+00  0.000000000000E+00  0.000000000000E+00
  0.000000000000E+00  0.000000000000E+00  0.000000000000E+00  0.000000000000E+00
  0.000000000000E+00  0.000000000000E+00  0.000000000000E+00  0.000000000000E+00
  0.000000000000E+00  0.000000000000E+00
</data>
</radfunc>
</pseudocore-charge>
<semilocal-potentials set="scalar_relativistic">
<slps n="3" l="s" rc="1.46089145447">
<radfunc>
<data npts="290">
  2.853865993089E+01  2.852998701699E+01  2.850408056309E+01  2.846092565481E+01
  2.840106215405E+01  2.832258878149E+01  2.822296964032E+01  2.810943581463E+01
  2.798246050790E+01  2.783528972828E+01  2.767055584737E+01  2.749287090281E+01
  2.728000714485E+01  2.705985597636E+01  2.680295036164E+01  2.654935068076E+01
  2.626093449071E+01  2.599104517590E+01  2.569161933755E+01  2.536002181370E+01
  2.499352619433E+01  2.467333334040E+01  2.432759089486E+01  2.395487753012E+01
  2.355380516371E+01  2.312304325669E+01  2.266134647240E+01  2.229408829652E+01
  2.190836845896E+01  2.150382058023E+01  2.108014361008E+01  2.063711134278E+01
  2.017458220871E+01  1.969250923064E+01  1.919095001576E+01  1.867007663795E+01
  1.813018524901E+01  1.757170524312E+01  1.718933421387E+01  1.679915820228E+01
  1.640141350657E+01  1.599636767033E+01  1.558432016351E+01  1.516560293209E+01
  1.474058080238E+01  1.430965172541E+01  1.387324684683E+01  1.343183038650E+01
  1.298589931214E+01  1.253598279009E+01  1.208264139585E+01  1.162646606629E+01
  1.116807677439E+01  1.070812090697E+01  1.024727132465E+01  9.786224083400E+00
  9.325695796065E+00  8.866420612949E+00  8.409146800761E+00  7.954632900889E+00
  7.503643450166E+00  7.056944250904E+00  6.615297182076E+00  6.179454550400E+00
  5.750152989269E+00  5.328106925137E+00  4.914001645728E+00  4.710131200083E+00
  4.508486022429E+00  4.309140292761E+00  4.112164961029E+00  3.917627503675E+00
  3.725591680603E+00  3.536117293950E+00  3.349259950103E+00  3.165070826644E+00
  2.983596445968E+00  2.804878457602E+00  2.628953431287E+00  2.455852663127E+00
  2.285601997317E+00  2.118221665951E+00  1.953726149809E+00  1.792124062923E+00
  1.633418064056E+00  1.477604798179E+00  1.324674871243E+00  1.174612861517E+00
  1.027397370871E+00  8.830011193055E-01  7.413910859468E-01  6.025286999781E-01
  4.663700837386E-01  3.328663521775E-01  2.019639693358E-01  7.360516560788E-02
 -5.227158357253E-02 -1.757310161532E-01 -2.968404785331E-01 -4.156692576817E-01
 -5.322878513064E-01 -6.467671782215E-01 -7.591777320420E-01 -8.695886825137E-01
 -9.780669300617E-01 -1.084676120608E+00 -1.189475629131E+00 -1.292519522180E+00
 -1.393855511183E+00 -1.493523910398E+00 -1.591556615196E+00 -1.687976118479E+00
 -1.782794585224E+00 -1.876013007248E+00 -1.967620462564E+00 -2.057593505738E+00
 -2.145895717667E+00 -2.232477444786E+00 -2.317275758737E+00 -2.400214668016E+00
 -2.481205612194E+00 -2.560148267284E+00 -2.636931686770E+00 -2.711435796766E+00
 -2.783533255110E+00 -2.853091672971E+00 -2.919976183628E+00 -2.984052326861E+00
 -3.045189199485E+00 -3.103262804133E+00 -3.158159510826E+00 -3.209779530977E+00
 -3.258040292994E+00 -3.302879604367E+00 -3.344258487903E+00 -3.382163589976E+00
 -3.416609075217E+00 -3.447637943025E+00 -3.475322723380E+00 -3.499765529426E+00
 -3.521097458887E+00 -3.539477343337E+00 -3.555089843427E+00 -3.568142880588E+00
 -3.578864385002E+00 -3.587498330033E+00 -3.594300019790E+00 -3.599530603148E+00
 -3.603450807131E+00 -3.606313916030E+00 -3.608358068785E+00 -3.609798003773E+00
 -3.610816442432E+00 -3.611555368111E+00 -3.612107517812E+00 -3.612508459031E+00
 -3.612729666500E+00 -3.612673040899E+00 -3.612167319505E+00 -3.610966813984E+00