<?xml version="1.0" encoding="UTF-8" ?>
<psml version="1.1" energy_unit="hartree" length_unit="bohr"
 uuid="8b47e200-5169-11e8-7feb-a153fffc2aac"
 xmlns="http://esl.cecam.org/PSML/ns/1.1">
<provenance creator="ONCVPSP-3.3.0+psml-3.3.0-73 (fully-relativistic)"
 date="2018-05-06">
<annotation action="semilocal-pseudopotential-generation"
 action-cont="projectors-generation" />
<input-file name="oncvpsp-input">
<![CDATA[# atsym z nc nv iexc psfile
Ga 31 3 5 4 both
# n l f
1 0 2.0
2 0 2.0
2 1 6.0
3 0 2.0
3 1 6.0
3 2 10.0
4 0 2.0
4 1 1.0
# lmax
2
# l rc ep ncon nbas qcut
0 1.2 0.0 4 7 9.4
1 1.3 0.0 4 7 10.6
2 1.5 0.0 4 7 10.6
# lloc lpopt rc5 dvloc0
4 5 1.2 0.0
# l nproj debl
0 2 1.0
1 2 1.0
2 2 3.0
# icmod fcfact rcfact
3 3.0 1.5
# epsh1 epsh2 depsh
-12.0 12.0 0.02
# rlmax drl
6.0 0.01
 0
]]>
</input-file>
</provenance>
<pseudo-atom-spec atomic-label="Ga" atomic-number="31" z-pseudo="21"
 flavor="Hamann&apos;s oncvpsp" relativity="dirac" spin-dft="no"
 core-corrections="yes">
<annotation pseudo-energy="-245.058043974" />
<exchange-correlation>
<annotation oncvpsp-xc-code="4" oncvpsp-xc-type="GGA -- Perdew-Burke-Ernzerhof" />
<libxc-info number-of-functionals="2">
<functional name="Perdew, Burke &amp; Ernzerhof (GGA)" type="exchange" id="101" />
<functional name="Perdew, Burke &amp; Ernzerhof (GGA)" type="correlation"
 id="130" />
</libxc-info>
</exchange-correlation>
<valence-configuration total-valence-charge="21">
<shell n="3" l="s" occupation="2" />
<shell n="3" l="p" occupation="6" />
<shell n="3" l="d" occupation="10" />
<shell n="4" l="s" occupation="2" />
<shell n="4" l="p" occupation="1" />
</valence-configuration>
</pseudo-atom-spec>
<grid npts="458">
<annotation type="sampled from oncvpsp log grid"
 recipe="r(i:1..N) = r1*exp(a*(i-1)) + r=0; resampled"
 recipe-cont="r1: scale; a: step" scale="0.161290322581E-04"
 step="0.119285708653E-01" delta="0.500000000000E-02" rmax="44.3593682749" />
<grid-data>
  0.000000000000E+00  5.005354308404E-03  1.011777605404E-02  1.517827746610E-02
  2.020946365338E-02  2.535038301076E-02  3.068122710716E-02  3.582773785855E-02
  4.085121947787E-02  4.602673310278E-02  5.124302544502E-02  5.637400155005E-02
  6.201874349076E-02  6.741965885400E-02  7.242185184910E-02  7.779518191586E-02
  8.356718552202E-02  8.870300612650E-02  9.415446082966E-02  9.994094767748E-02
  1.060830568691E-01  1.112674348058E-01  1.167051781279E-01  1.224086690381E-01
  1.283908948690E-01  1.346654776560E-01  1.412467051564E-01  1.463928491930E-01
  1.517264864416E-01  1.572544479790E-01  1.629838137635E-01  1.689219217026E-01
  1.750763770511E-01  1.814550621518E-01  1.880661465305E-01  1.949180973592E-01
  2.020196903006E-01  2.093800207477E-01  2.144352919686E-01  2.196126176579E-01
  2.249149446987E-01  2.303452911235E-01  2.359067478323E-01  2.416024803520E-01
  2.474357306376E-01  2.534098189181E-01  2.595281455861E-01  2.657941931331E-01
  2.722115281321E-01  2.787838032674E-01  2.855147594134E-01  2.924082277647E-01
  2.994681320159E-01  3.066984905953E-01  3.141034189522E-01  3.216871318994E-01
  3.294539460120E-01  3.374082820845E-01  3.455546676471E-01  3.538977395428E-01
  3.624422465663E-01  3.711930521674E-01  3.801551372189E-01  3.893336028520E-01
  3.987336733592E-01  4.083606991688E-01  4.182201598895E-01  4.232388018082E-01
  4.283176674299E-01  4.334574794391E-01  4.386589691923E-01  4.439228768226E-01
  4.492499513445E-01  4.546409507606E-01  4.600966421698E-01  4.656178018758E-01
  4.712052154983E-01  4.768596780843E-01  4.825819942213E-01  4.883729781520E-01
  4.942334538898E-01  5.001642553365E-01  5.061662264005E-01  5.122402211173E-01
  5.183871037707E-01  5.246077490160E-01  5.309030420042E-01  5.372738785082E-01
  5.437211650503E-01  5.502458190309E-01  5.568487688593E-01  5.635309540856E-01
  5.702933255346E-01  5.771368454410E-01  5.840624875863E-01  5.910712374374E-01
  5.981640922866E-01  6.053420613940E-01  6.126061661308E-01  6.199574401243E-01
  6.273969294058E-01  6.349256925587E-01  6.425448008694E-01  6.502553384798E-01
  6.580584025416E-01  6.659551033721E-01  6.739465646126E-01  6.820339233879E-01
  6.902183304686E-01  6.985009504342E-01  7.068829618394E-01  7.153655573815E-01
  7.239499440701E-01  7.326373433989E-01  7.414289915197E-01  7.503261394179E-01
  7.593300530909E-01  7.684420137280E-01  7.776633178928E-01  7.869952777075E-01
  7.964392210400E-01  8.059964916924E-01  8.156684495928E-01  8.254564709879E-01
  8.353619486397E-01  8.453862920234E-01  8.555309275277E-01  8.657972986580E-01
  8.761868662419E-01  8.867011086368E-01  8.973415219405E-01  9.081096202037E-01
  9.190069356462E-01  9.300350188739E-01  9.411954391004E-01  9.524897843696E-01
  9.639196617821E-01  9.754866977235E-01  9.871925380961E-01  9.990388485533E-01
  1.011027314736E+00  1.023159642513E+00  1.035437558223E+00  1.047862808922E+00
  1.060437162629E+00  1.073162408580E+00  1.086040357483E+00  1.099072841773E+00
  1.112261715874E+00  1.125608856465E+00  1.139116162742E+00  1.152785556695E+00
  1.166618983376E+00  1.180618411176E+00  1.194785832110E+00  1.209123262095E+00
  1.223632741241E+00  1.238316334136E+00  1.253176130145E+00  1.268214243707E+00
  1.283432814631E+00  1.298834008407E+00  1.314420016508E+00  1.330193056706E+00
  1.346155373386E+00  1.362309237867E+00  1.378656948721E+00  1.395200832106E+00
  1.411943242091E+00  1.428886560996E+00  1.446033199728E+00  1.463385598125E+00
  1.480946225303E+00  1.498717580006E+00  1.516702190966E+00  1.534902617258E+00
  1.553321448665E+00  1.571961306049E+00  1.590824841722E+00  1.609914739822E+00
  1.629233716700E+00  1.648784521301E+00  1.668569935556E+00  1.688592774783E+00
  1.708855888080E+00  1.729362158737E+00  1.750114504642E+00  1.771115878698E+00
  1.792369269242E+00  1.813877700473E+00  1.835644232879E+00  1.857671963673E+00
  1.879964027237E+00  1.902523595564E+00  1.925353878711E+00  1.948458125255E+00
  1.971839622759E+00  1.995501698232E+00  2.019447718610E+00  2.043681091234E+00
  2.068205264329E+00  2.093023727500E+00  2.118140012230E+00  2.143557692377E+00
  2.169280384686E+00  2.195311749302E+00  2.221655490294E+00  2.248315356177E+00
  2.275295140451E+00  2.302598682137E+00  2.330229866322E+00  2.358192624718E+00
  2.386490936215E+00  2.415128827449E+00  2.444110373379E+00  2.473439697859E+00
  2.503120974234E+00  2.533158425924E+00  2.563556327036E+00  2.594319002960E+00
  2.625450830996E+00  2.656956240967E+00  2.688839715859E+00  2.721105792449E+00
  2.753759061959E+00  2.786804170702E+00  2.820245820751E+00  2.854088770600E+00
  2.888337835847E+00  2.922997889877E+00  2.958073864556E+00  2.993570750930E+00
  3.029493599941E+00  3.065847523141E+00  3.102637693418E+00  3.139869345739E+00
  3.177547777888E+00  3.215678351223E+00  3.254266491438E+00  3.293317689335E+00
  3.332837501607E+00  3.372831551626E+00  3.413305530246E+00  3.454265196609E+00
  3.495716378968E+00  3.537664975516E+00  3.580116955222E+00  3.623078358684E+00
  3.666555298989E+00  3.710553962577E+00  3.755080610127E+00  3.800141577449E+00
  3.845743276378E+00  3.891892195695E+00  3.938594902043E+00  3.985858040868E+00
  4.033688337358E+00  4.082092597406E+00  4.131077708575E+00  4.180650641078E+00
  4.230818448771E+00  4.281588270156E+00  4.332967329398E+00  4.384962937351E+00
  4.437582492599E+00  4.490833482510E+00  4.544723484301E+00  4.599260166112E+00
  4.654451288106E+00  4.710304703563E+00  4.766828360006E+00  4.824030300326E+00
  4.881918663930E+00  4.940501687897E+00  4.999787708151E+00  5.059785160649E+00
  5.120502582577E+00  5.181948613568E+00  5.244131996931E+00  5.307061580894E+00
  5.370746319865E+00  5.435195275703E+00  5.500417619012E+00  5.566422630440E+00
  5.633219702005E+00  5.700818338429E+00  5.769228158490E+00  5.838458896392E+00
  5.908520403149E+00  5.979422647987E+00  6.051175719762E+00  6.123789828400E+00
  6.197275306340E+00  6.271642610016E+00  6.346902321337E+00  6.423065149193E+00
  6.500141930983E+00  6.578143634155E+00  6.657081357765E+00  6.736966334058E+00
  6.817809930066E+00  6.899623649227E+00  6.982419133018E+00  7.066208162614E+00
  7.151002660566E+00  7.236814692492E+00  7.323656468802E+00  7.411540346428E+00
  7.500478830585E+00  7.590484576552E+00  7.681570391471E+00  7.773749236168E+00
  7.867034227002E+00  7.961438637726E+00  8.056975901379E+00  8.153659612196E+00
  8.251503527542E+00  8.350521569872E+00  8.450727828711E+00  8.552136562655E+00
  8.654762201407E+00  8.758619347824E+00  8.863722779998E+00  8.970087453358E+00
  9.077728502798E+00  9.186661244832E+00  9.296901179770E+00  9.408463993927E+00
  9.521365561854E+00  9.635621948597E+00  9.751249411980E+00  9.868264404924E+00
  9.986683577783E+00  1.010652378072E+01  1.022780206608E+01  1.035053569088E+01
  1.047474211917E+01  1.060043902460E+01  1.072764429289E+01  1.085637602441E+01
  1.098665253670E+01  1.111849236714E+01  1.125191427555E+01  1.138693724685E+01
  1.152358049382E+01  1.166186345974E+01  1.180180582126E+01  1.194342749111E+01
  1.208674862101E+01  1.223178960446E+01  1.237857107971E+01  1.252711393267E+01
  1.267743929986E+01  1.282956857146E+01  1.298352339432E+01  1.313932567505E+01
  1.329699758315E+01  1.345656155415E+01  1.361804029280E+01  1.378145677631E+01
  1.394683425763E+01  1.411419626872E+01  1.428356662394E+01  1.445496942343E+01
  1.462842905651E+01  1.480397020519E+01  1.498161784765E+01  1.516139726182E+01
  1.534333402896E+01  1.552745403731E+01  1.571378348576E+01  1.590234888759E+01
  1.609317707424E+01  1.628629519913E+01  1.648173074152E+01  1.667951151042E+01
  1.687966564854E+01  1.708222163633E+01  1.728720829596E+01  1.749465479551E+01
  1.770459065306E+01  1.791704574090E+01  1.813205028979E+01  1.834963489327E+01
  1.856983051198E+01  1.879266847813E+01  1.901818049987E+01  1.924639866586E+01
  1.947735544985E+01  1.971108371525E+01  1.994761671984E+01  2.018698812047E+01
  2.042923197792E+01  2.067438276165E+01  2.092247535479E+01  2.117354505905E+01
  2.142762759976E+01  2.168475913096E+01  2.194497624053E+01  2.220831595542E+01
  2.247481574688E+01  2.274451353584E+01  2.301744769827E+01  2.329365707065E+01
  2.357318095550E+01  2.385605912697E+01  2.414233183649E+01  2.443203981853E+01
  2.472522429635E+01  2.502192698791E+01  2.532219011176E+01  2.562605639310E+01
  2.593356906982E+01  2.624477189866E+01  2.655970916144E+01  2.687842567138E+01
  2.720096677944E+01  2.752737838079E+01  2.785770692136E+01  2.819199940441E+01
  2.853030339727E+01  2.887266703803E+01  2.921913904249E+01  2.956976871100E+01
  2.992460593553E+01  3.028370120676E+01  3.064710562124E+01  3.101487088870E+01
  3.138704933936E+01  3.176369393143E+01  3.214485825861E+01  3.253059655771E+01
  3.292096371640E+01  3.331601528100E+01  3.371580746437E+01  3.412039715395E+01
  3.452984191979E+01  3.494420002283E+01  3.536353042311E+01  3.578789278818E+01
  3.621734750164E+01  3.665195567166E+01  3.709177913972E+01  3.753688048940E+01
  3.798732305527E+01  3.844317093193E+01  3.890448898312E+01  3.937134285091E+01
  3.984379896512E+01  4.032192455271E+01  4.080578764734E+01  4.129545709911E+01
  4.179100258430E+01  4.229249461531E+01  4.280000455069E+01  4.331360460530E+01
  4.383336786056E+01  4.435936827489E+01
</grid-data>
</grid>
<valence-charge total-charge="21" is-unscreening-charge="yes"
 rescaled-to-z-pseudo="no">
<radfunc>
<data npts="458">
  2.939792139467E+01  2.941123000486E+01  2.945228930641E+01  2.952023333894E+01
  2.961465529504E+01  2.973873296253E+01  2.989674094810E+01  3.007749779355E+01
  3.028051416680E+01  3.051696054096E+01  3.078308289739E+01  3.107186387769E+01
  3.142020574983E+01  3.178322764317E+01  3.214506892543E+01  3.256084849722E+01
  3.303828370465E+01  3.348949607166E+01  3.399516315592E+01  3.456144678168E+01
  3.519508834747E+01  3.575541110821E+01  3.636756499342E+01  3.703583106888E+01
  3.776472565719E+01  3.855898290689E+01  3.942352708407E+01  4.012110902875E+01
  4.086325725210E+01  4.165216179416E+01  4.249000312098E+01  4.337892552433E+01
  4.432100489223E+01  4.531820999973E+01  4.637235638440E+01  4.748505178820E+01
  4.865763207433E+01  4.989108646923E+01  5.074750364800E+01  5.163127168297E+01
  5.254230858509E+01  5.348039675536E+01  5.444516567287E+01  5.543607318273E+01
  5.645238535485E+01  5.749315490194E+01  5.855719816748E+01  5.964307072209E+01
  6.074904164032E+01  6.187306657065E+01  6.301275975978E+01  6.416536524915E+01
  6.532772752778E+01  6.649626200140E+01  6.766692572443E+01  6.883518893822E+01
  6.999600806678E+01  7.114380093924E+01  7.227242513501E+01  7.337516048257E+01
  7.444469688192E+01  7.547312876220E+01  7.645195762308E+01  7.737210423744E+01
  7.822393220378E+01  7.899728462233E+01  7.968153571662E+01  7.998681596073E+01
  8.026565922059E+01  8.051663889002E+01  8.073831528523E+01  8.092923948431E+01
  8.108795751264E+01  8.121301488116E+01  8.130296148316E+01  8.135635685261E+01
  8.137177578500E+01  8.134781431849E+01  8.128309607058E+01  8.117627892170E+01
  8.102606203384E+01  8.083119318786E+01  8.059047641933E+01  8.030277992771E+01
  7.996704422907E+01  7.958229051712E+01  7.914762919234E+01  7.866226851302E+01
  7.812552331653E+01  7.753682375343E+01  7.689572397107E+01  7.620191067758E+01
  7.545521151174E+01  7.465560313863E+01  7.380321898614E+01  7.289835653265E+01
  7.194148405240E+01  7.093324672168E+01  6.987447198651E+01  6.876617409110E+01
  6.760955766602E+01  6.640602027581E+01  6.515715382826E+01  6.386474475131E+01
  6.253077284896E+01  6.115740875502E+01  5.974700991222E+01  5.830211501560E+01
  5.682543687158E+01  5.531985363910E+01  5.378839843589E+01  5.223424731124E+01
  5.066070560699E+01  4.907119274983E+01  4.746922554095E+01  4.585840003302E+01
  4.424237210856E+01  4.262483689866E+01  4.100950720529E+01  3.940009111408E+01
  3.780026900673E+01  3.621367020301E+01  3.464384948003E+01  3.309426373196E+01
  3.156824904469E+01  3.006899846735E+01  2.859954076558E+01  2.716272043892E+01
  2.576117927741E+01  2.439733971894E+01  2.307339025015E+01  2.179127306906E+01
  2.055267419755E+01  1.935901619660E+01  1.821145359776E+01  1.711087112070E+01
  1.605788470035E+01  1.505284529895E+01  1.409584542932E+01  1.318672826729E+01
  1.232509918450E+01  1.151033948962E+01  1.074162212683E+01  1.001792904743E+01
  9.338069943755E+00  8.700702015683E+00  8.104350429630E+00  7.547429127622E+00
  7.028261650979E+00  6.545101658168E+00  6.096152839401E+00  5.679587960482E+00
  5.293566804187E+00  4.936252817601E+00  4.605828316843E+00  4.300508144824E+00
  4.018551907836E+00  3.758275232259E+00  3.518059528941E+00  3.296358519985E+00
  3.091703418916E+00  2.902706605306E+00  2.728064069683E+00  2.566556354899E+00
  2.417047233837E+00  2.278481247657E+00  2.149883806783E+00  2.030360541691E+00
  1.919096068829E+00  1.815352183605E+00  1.718465516908E+00  1.627844683287E+00
  1.542966941456E+00  1.463374384724E+00  1.388669679783E+00  1.318509219203E+00
  1.252587582016E+00  1.190619165551E+00  1.132334724700E+00  1.077483230830E+00
  1.025829757461E+00  9.771548650114E-01  9.312537794070E-01  8.879356111142E-01
  8.470225961855E-01  8.083493602549E-01  7.717622066008E-01  7.371184290789E-01
  7.042856505130E-01  6.731411869224E-01  6.435714377983E-01  6.154713024840E-01
  5.887436225856E-01  5.632986502265E-01  5.390535418470E-01  5.159318772267E-01
  4.938632031871E-01  4.727826015537E-01  4.526302807614E-01  4.333511904932E-01
  4.148946586853E-01  3.972140501994E-01  3.802664464288E-01  3.640123450806E-01
  3.484153793579E-01  3.334420557503E-01  3.190615096341E-01  3.052452778769E-01
  2.919670876476E-01  2.792026606304E-01  2.669295318589E-01  2.551268823910E-01
  2.437753850674E-01  2.328570626098E-01  2.223551573378E-01  2.122540118054E-01
  2.025389596800E-01  1.931962262120E-01  1.842128376704E-01  1.755765391418E-01
  1.672757201195E-01  1.592993473343E-01  1.516369043043E-01  1.442783371069E-01
  1.372140059024E-01  1.304346417621E-01  1.239313083785E-01  1.176953682589E-01
  1.117184530272E-01  1.059924374779E-01  1.005094170518E-01  9.526168842096E-02
  9.024173288661E-02  8.544220232075E-02  8.085590739330E-02  7.647580784537E-02
  7.229500458660E-02  6.830673340882E-02  6.450436012371E-02  6.088137694563E-02
  5.743139995398E-02  5.414816748226E-02  5.102553929252E-02  4.805749640525E-02
  4.523814146547E-02  4.256169953564E-02  4.002251921596E-02  3.761507400140E-02
  3.533396379371E-02  3.317391649478E-02  3.112978961581E-02  2.919657184396E-02
  2.736938451567E-02  2.564348295235E-02  2.401425762093E-02  2.247723508766E-02
  2.102807873960E-02  1.966258925360E-02  1.837670479797E-02  1.716650095624E-02
  1.602819036664E-02  1.495812207871E-02  1.395278062509E-02  1.300878481620E-02
  1.212288626556E-02  1.129196765682E-02  1.051304076561E-02  9.783244251204E-03
  9.099841234638E-03  8.460216680985E-03  7.861874604366E-03  7.302435114963E-03
  6.779631327492E-03  6.291306150731E-03  5.835408977490E-03  5.409992294062E-03
  5.013208227672E-03  4.643305049702E-03  4.298623651717E-03  3.977594010345E-03
  3.678731656106E-03  3.400634160188E-03  3.141977652101E-03  2.901513379987E-03
  2.678064324250E-03  2.470521874029E-03  2.277842574933E-03  2.099044955371E-03
  1.933206437767E-03  1.779460339949E-03  1.636992971056E-03  1.505040825389E-03
  1.382887876834E-03  1.269862975674E-03  1.165337348900E-03  1.068722204490E-03
  9.794664395120E-04  8.970544513907E-04  8.210040511849E-04  7.508644773163E-04
  6.862145078094E-04  6.266606687905E-04  5.718355367172E-04  5.213961315805E-04
  4.750223981323E-04  4.324157720381E-04  3.932978277328E-04  3.574090046737E-04
  3.245074086213E-04  2.943676845449E-04  2.667799577429E-04  2.415488397742E-04
  2.184924958329E-04  1.974417702444E-04  1.782393668274E-04  1.607390809456E-04
  1.448050801698E-04  1.303112305725E-04  1.171404657676E-04  1.051841959832E-04
  9.434175486401E-05  8.451987968141E-05  7.563222774374E-05  6.759892000711E-05
  6.034610939189E-05  5.380558600091E-05  4.791439994050E-05  4.261450604223E-05
  3.785243270260E-05  3.357897042645E-05  2.974887883589E-05  2.632061126918E-05
  2.325605586590E-05  2.052029214590E-05  1.808136217332E-05  1.591005547286E-05
  1.397970693366E-05  1.226600699684E-05  1.074682347678E-05  9.402034413314E-06
  8.213371393563E-06  7.164272817901E-06  6.239746615899E-06  5.426241944778E-06
  4.711529426261E-06  4.084589497741E-06  3.535508471202E-06  3.055381908661E-06
  2.636224936558E-06  2.270889133857E-06  1.952985639965E-06  1.676814139289E-06
  1.437297389435E-06  1.229920970122E-06  1.050677939729E-06  8.960180964333E-07
  7.628015509346E-07  6.482563280530E-07  5.499397249888E-07  4.657031647162E-07
  3.936602939038E-07  3.321580858424E-07  2.797507200820E-07  2.351760217984E-07
  1.973342552638E-07  1.652690771237E-07  1.381504664426E-07  1.152594595990E-07
  9.597452904236E-08  7.975945561680E-08  6.615255456178E-08  5.475712537686E-08
  4.523300545120E-08  3.728911667739E-08  3.067690317000E-08  2.518456667247E-08
  2.063201424930E-08  1.686644041575E-08  1.375847295146E-08  1.119881827923E-08
  9.095348471201E-09  7.370577680716E-09  5.959481101217E-09  4.807614438817E-09
  3.869496368527E-09  3.107220544691E-09  2.489267473108E-09  1.989489946253E-09
  1.586248814882E-09  1.261678640468E-09  1.001065264185E-09  7.923195607646E-10
  6.255336396061E-10  4.926075307765E-10  3.869359689622E-10  3.031462820150E-10
  2.368796195298E-10  1.846088369704E-10  1.434872972030E-10  1.112236778588E-10
  8.597859260689E-11  6.627945903806E-11  5.095058627974E-11  3.905592156130E-11
  2.985229568262E-11  2.275135078312E-11  1.728862722265E-11  1.309853626126E-11
  9.894157343543E-12  7.450978283437E-12  5.593848037923E-12  4.186539037725E-12
  3.123422702960E-12  2.322850859381E-12  1.721909936503E-12  1.272276367037E-12
  9.369524972543E-13  6.877042608153E-13  5.030563200993E-13  3.667285804776E-13
  2.664209884709E-13  1.928722264292E-13  1.391330652275E-13  1.000073711914E-13
  7.162358027569E-14  5.110736908453E-14  3.633250962553E-14  2.573192614410E-14
  1.815493228957E-14  1.275976212836E-14  8.932973673231E-15  6.229235315716E-15
  4.326513397653E-15  2.992851537036E-15  2.061840261861E-15  1.414575837294E-15
  9.664451825072E-16  6.574853961832E-16  4.453800328014E-16  3.003922284335E-16
  2.017145573659E-16  1.348507508422E-16  8.974571751029E-17  5.945585807109E-17
  3.920776104682E-17  2.573483826959E-17  1.681193329883E-17  1.093037957814E-17
  7.072096296300E-18  4.553329415526E-18  2.358771831434E-18  0.000000000000E+00
  0.000000000000E+00  0.000000000000E+00  0.000000000000E+00  0.000000000000E+00
  0.000000000000E+00  0.000000000000E+00
</data>
</radfunc>
</valence-charge>
<pseudocore-charge matching-radius="0.337408282084"
 number-of-continuous-derivatives="4">
<annotation model-charge-form="Teter function with specified parameters" />
<radfunc>
<data npts="291">
  2.320317132233E+02  2.319600205571E+02  2.317389063184E+02  2.313732444738E+02
  2.308655659196E+02  2.301992896525E+02  2.293522120788E+02  2.283850963630E+02
  2.273013189089E+02  2.260423186159E+02  2.246294601668E+02  2.231012699506E+02
  2.212647409814E+02  2.193587529414E+02  2.174669890984E+02  2.153030739350E+02
  2.128311939927E+02  2.105077058104E+02  2.079183000885E+02  2.050365603418E+02
  2.018345203364E+02  1.990226229823E+02  1.959715279687E+02  1.926654995298E+02
  1.890887366706E+02  1.852256177597E+02  1.810610027891E+02  1.777310438879E+02
  1.742178518562E+02  1.705163760355E+02  1.666222264573E+02  1.625318235851E+02
  1.582425631389E+02  1.537529957117E+02  1.490630203666E+02  1.441740907568E+02
  1.390894315261E+02  1.338142618051E+02  1.301952186813E+02  1.264975595382E+02
  1.227245949589E+02  1.188801743786E+02  1.149687114952E+02  1.109952072179E+02
  1.069652694844E+02  1.028851292118E+02  9.876165158923E+01  9.460234186455E+01
  9.041534473432E+01  8.620943641167E+01  8.199400842956E+01  7.777904223872E+01
  7.357507368534E+01  6.939314650863E+01  6.524475408675E+01  6.114176878709E+01
  5.709635844779E+01  5.312088973596E+01  4.922781839810E+01  4.542956674120E+01
  4.173838906050E+01  3.816622615872E+01  3.472455057842E+01  3.142420468544E+01
  2.827523428469E+01  2.528672100516E+01  2.246661723522E+01  2.112185610764E+01
  1.982158789861E+01  1.856642048202E+01  1.735686380278E+01  1.619332628604E+01
  1.507611163037E+01  1.400541602654E+01  1.298132584251E+01  1.200381581409E+01
  1.107274777880E+01  1.018786998852E+01  9.348817032994E+00  8.555110403260E+00
  7.806159719719E+00  7.101264644746E+00  6.439617494522E+00  5.820306558693E+00
  5.242320129953E+00  4.704551238595E+00  4.205803079462E+00  3.744795110809E+00
  3.320169796257E+00  2.930499952481E+00  2.574296656617E+00  2.250017658698E+00
  1.956076235923E+00  1.690850417306E+00  1.452692499522E+00  1.239938767575E+00
  1.050919327628E+00  8.839679539310E-01  7.374318476483E-01  6.096812024888E-01
  4.991184707228E-01  4.041872234386E-01  3.233805009542E-01  2.552485532145E-01
  1.984058758450E-01  1.515374553252E-01  1.134041464655E-01  8.284711695454E-02
  5.879130706878E-02  4.024786753211E-02  2.631555474407E-02  1.618107988334E-02
  9.118426396612E-03  4.487168718658E-03  1.729843310556E-03  3.684407914005E-04
  1.045951402537E-07  2.921367222828E-04  9.764242981545E-04  1.843411342653E-03
  2.735747992206E-03  3.541754046420E-03  4.188834873877E-03  4.636985236047E-03
  4.872510420799E-03  4.902084288514E-03  4.747250628855E-03  4.439457945985E-03
  4.015698909613E-03  3.514804828669E-03  2.974423332470E-03  2.428684775530E-03
  1.906540567983E-03  1.430735546049E-03  1.017357489686E-03  6.758907597030E-04
  4.096884511919E-04  2.167689846094E-04  9.083903659400E-05  2.244529179940E-05
  1.625829905059E-07  1.173524604700E-05  4.510138147627E-05  8.924540446986E-05
  1.348418272222E-04  1.746715744563E-04  2.038101536134E-04  2.196035698081E-04
  2.214619720051E-04  2.105117910784E-04  1.891539710711E-04  1.605784825530E-04
  1.282836470708E-04  9.564323314129E-05  6.555545935352E-05  4.019687610667E-05
  2.089170126400E-05  8.094756423943E-06  1.474871694386E-06  7.654766892628E-08
  2.531594784420E-06  7.289897987652E-06  1.283948324708E-05  1.789039965410E-05
  2.150391625167E-05  2.315721081347E-05  2.274295968099E-05  2.051184006851E-05
  1.697285109038E-05  1.277071660982E-05  8.560982270957E-06  4.901719668277E-06
  2.176398527363E-06  5.562606404040E-07  3.471198688169E-09  0.000000000000E+00
  0.000000000000E+00  0.000000000000E+00  0.000000000000E+00  0.000000000000E+00
  0.000000000000E+00  0.000000000000E+00  0.000000000000E+00  0.000000000000E+00
  0.000000000000E+00  0.000000000000E+00  0.000000000000E+00  0.000000000000E+00
  0.000000000000E+00  0.000000000000E+00  0.000000000000E+00  0.000000000000E+00
  0.000000000000E+00  0.000000000000E+00  0.000000000000E+00  0.000000000000E+00
  0.000000000000E+00  0.000000000000E+00  0.000000000000E+00  0.000000000000E+00
  0.000000000000E+00  0.000000000000E+00  0.000000000000E+00  0.000000000000E+00
  0.000000000000E+00  0.000000000000E+00  0.000000000000E+00  0.000000000000E+00
  0.000000000000E+00  0.000000000000E+00  0.000000000000E+00  0.000000000000E+00
  0.000000000000E+00  0.000000000000E+00  0.000000000000E+00  0.000000000000E+00
  0.000000000000E+00  0.000000000000E+00  0.000000000000E+00  0.000000000000E+00
  0.000000000000E+00  0.000000000000E+00  0.000000000000E+00  0.000000000000E+00
  0.000000000000E+00  0.000000000000E+00  0.000000000000E+00  0.000000000000E+00
  0.000000000000E+00  0.000000000000E+00  0.000000000000E+00  0.000000000000E+00
  0.000000000000E+00  0.000000000000E+00  0.000000000000E+00  0.000000000000E+00
  0.000000000000E+00  0.000000000000E+00  0.000000000000E+00  0.000000000000E+00
  0.000000000000E+00  0.000000000000E+00  0.000000000000E+00  0.000000000000E+00
  0.000000000000E+00  0.000000000000E+00  0.000000000000E+00  0.000000000000E+00
  0.000000000000E+00  0.000000000000E+00  0.000000000000E+00  0.000000000000E+00
  0.000000000000E+00  0.000000000000E+00  0.000000000000E+00  0.000000000000E+00
  0.000000000000E+00  0.000000000000E+00  0.000000000000E+00  0.000000000000E+00
  0.000000000000E+00  0.000000000000E+00  0.000000000000E+00  0.000000000000E+00
  0.000000000000E+00  0.000000000000E+00  0.000000000000E+00  0.000000000000E+00
  0.000000000000E+00  0.000000000000E+00  0.000000000000E+00  0.000000000000E+00
  0.000000000000E+00  0.000000000000E+00  0.000000000000E+00  0.000000000000E+00
  0.000000000000E+00  0.000000000000E+00  0.000000000000E+00  0.000000000000E+00
  0.000000000000E+00  0.000000000000E+00  0.000000000000E+00  0.000000000000E+00
  0.000000000000E+00  0.000000000000E+00  0.000000000000E+00  0.000000000000E+00
  0.000000000000E+00  0.000000000000E+00  0.000000000000E+00
</data>
</radfunc>
</pseudocore-charge>
<semilocal-potentials set="scalar_relativistic">
<slps n="3" l="s" rc="1.20912326210">
<radfunc>
<data npts="291">
 -3.594143197565E+01 -3.594136356732E+01 -3.594115306751E+01 -3.594080660754E+01
 -3.594032895080E+01 -3.593970788797E+01 -3.593892756537E+01 -3.593804893168E+01
 -3.593707923057E+01 -3.593597162286E+01 -3.593475148411E+01 -3.593345718056E+01
 -3.593193402080E+01 -3.593038717746E+01 -3.592888249843E+01 -3.592719425423E+01
 -3.592530237036E+01 -3.592355321982E+01 -3.592162947593E+01 -3.591951033274E+01
 -3.591716906939E+01 -3.591511281051E+01 -3.591286859654E+01 -3.591040641586E+01
 -3.590768768444E+01 -3.590466268681E+01 -3.590126736597E+01 -3.589842910754E+01
 -3.589529358199E+01 -3.589180896283E+01 -3.588791305800E+01 -3.588353142386E+01
 -3.587857518549E+01 -3.587293852441E+01 -3.586649579096E+01 -3.585909819367E+01
 -3.585057001401E+01 -3.584070429113E+01 -3.583326566083E+01 -3.582504329838E+01
 -3.581594609737E+01 -3.580587305272E+01 -3.579471232556E+01 -3.578234024243E+01
 -3.576862023066E+01 -3.575340169441E+01 -3.573651884016E+01 -3.571778946590E+01
 -3.569701373578E+01 -3.567397297201E+01 -3.564842850842E+01 -3.562012066565E+01
 -3.558876792653E+01 -3.555406640993E+01 -3.551568976145E+01 -3.547328959445E+01
 -3.542649661971E+01 -3.537492258785E+01 -3.531816312450E+01 -3.525580145493E+01
 -3.518741288513E+01 -3.511256973570E+01 -3.503084623381E+01 -3.494182270248E+01
 -3.484508830759E+01 -3.474024170246E+01 -3.462688919035E+01 -3.456690127962E+01
 -3.450464049252E+01 -3.444005759298E+01 -3.437310276579E+01 -3.430372541653E+01
 -3.423187399413E+01 -3.415749584561E+01 -3.408053711087E+01 -3.400094266324E+01
 -3.391865609922E+01 -3.383361977853E+01 -3.374577491404E+01 -3.365506170943E+01
 -3.356141954196E+01 -3.346478718731E+01 -3.336510308365E+01 -3.326230563228E+01
 -3.315633353300E+01 -3.304712615173E+01 -3.293462391809E+01 -3.281876874918E+01
 -3.269950449433E+01 -3.257677739305E+01 -3.245053653587E+01 -3.232073431489E+01
 -3.218732684831E+01 -3.205027436141E+01 -3.190954150594E+01 -3.176509760032E+01
 -3.161691677572E+01 -3.146497801673E+01 -3.130926509091E+01 -3.114976636757E+01
 -3.098647453290E+01 -3.081938621496E+01 -3.064850153758E+01 -3.047382362644E+01
 -3.029535809244E+01 -3.011311251841E+01 -2.992709597295E+01 -2.973731857213E+01
 -2.954379110549E+01 -2.934652473713E+01 -2.914553078790E+01 -2.894082059931E+01
 -2.873240547604E+01 -2.852029670059E+01 -2.830450561177E+01 -2.808504373822E+01
 -2.786192297834E+01 -2.763515581980E+01 -2.740475559375E+01 -2.717073676219E+01
 -2.693311524003E+01 -2.669190875731E+01 -2.644713727118E+01 -2.619882344116E+01
 -2.594699318577E+01 -2.569167634291E+01 -2.543290746080E+01 -2.517072675089E+01
 -2.490518123847E+01 -2.463632615080E+01 -2.436422658660E+01 -2.408895951379E+01
 -2.381061614448E+01 -2.352930473748E+01 -2.324515387747E+01 -2.295831627741E+01
 -2.266897314592E+01 -2.237733915331E+01 -2.208366802060E+01 -2.178825874296E+01
 -2.149146244538E+01 -2.119368985212E+01 -2.089541933527E+01 -2.059720549036E+01
 -2.029968816985E+01 -2.000360188802E+01 -1.970978549390E+01 -1.941919199154E+01
 -1.913289837096E+01 -1.885211529728E+01 -1.857819649424E+01 -1.831264765172E+01