<?xml version="1.0" encoding="UTF-8" ?>
<psml version="1.1" energy_unit="hartree" length_unit="bohr"
 uuid="d188a070-4709-11e8-4387-2858df605bdc"
 xmlns="http://esl.cecam.org/PSML/ns/1.1">
<provenance creator="ONCVPSP-3.3.0+psml-3.3.0-73 (fully-relativistic)"
 date="2018-04-23">
<annotation action="semilocal-pseudopotential-generation"
 action-cont="projectors-generation" />
<input-file name="oncvpsp-input">
<![CDATA[# atsym z nc nv iexc psfile
Ga 31 5 3 4 both
# n l f
1 0 2.0
2 0 2.0
2 1 6.0
3 0 2.0
3 1 6.0
3 2 10.0
4 0 2.0
4 1 1.0
# lmax
2
# l rc ep ncon nbas qcut
0 1.65 0.0 4 8 4.4
1 1.75 0.0 4 8 6.2
2 1.9 0.0 4 9 9.0
# lloc lpopt rc5 dvloc0
4 5 1.6 0.0
# l nproj debl
0 2 3.0
1 2 3.0
2 2 2.0
# icmod fcfact rcfact
3 5.0 1.4
# epsh1 epsh2 depsh
-12.0 12.0 0.02
# rlmax drl
6.0 0.01
 0
]]>
</input-file>
</provenance>
<pseudo-atom-spec atomic-label="Ga" atomic-number="31" z-pseudo="13"
 flavor="Hamann&apos;s oncvpsp" relativity="dirac" spin-dft="no"
 core-corrections="yes">
<annotation pseudo-energy="-67.0078324312" />
<exchange-correlation>
<annotation oncvpsp-xc-code="4" oncvpsp-xc-type="GGA -- Perdew-Burke-Ernzerhof" />
<libxc-info number-of-functionals="2">
<functional name="Perdew, Burke &amp; Ernzerhof (GGA)" type="exchange" id="101" />
<functional name="Perdew, Burke &amp; Ernzerhof (GGA)" type="correlation"
 id="130" />
</libxc-info>
</exchange-correlation>
<valence-configuration total-valence-charge="13">
<shell n="3" l="d" occupation="10" />
<shell n="4" l="s" occupation="2" />
<shell n="4" l="p" occupation="1" />
</valence-configuration>
</pseudo-atom-spec>
<grid npts="458">
<annotation type="sampled from oncvpsp log grid"
 recipe="r(i:1..N) = r1*exp(a*(i-1)) + r=0; resampled"
 recipe-cont="r1: scale; a: step" scale="0.161290322581E-04"
 step="0.119285708653E-01" delta="0.500000000000E-02" rmax="44.3593682749" />
<grid-data>
  0.000000000000E+00  5.005354308404E-03  1.011777605404E-02  1.517827746610E-02
  2.020946365338E-02  2.535038301076E-02  3.068122710716E-02  3.582773785855E-02
  4.085121947787E-02  4.602673310278E-02  5.124302544502E-02  5.637400155005E-02
  6.201874349076E-02  6.741965885400E-02  7.242185184910E-02  7.779518191586E-02
  8.356718552202E-02  8.870300612650E-02  9.415446082966E-02  9.994094767748E-02
  1.060830568691E-01  1.112674348058E-01  1.167051781279E-01  1.224086690381E-01
  1.283908948690E-01  1.346654776560E-01  1.412467051564E-01  1.463928491930E-01
  1.517264864416E-01  1.572544479790E-01  1.629838137635E-01  1.689219217026E-01
  1.750763770511E-01  1.814550621518E-01  1.880661465305E-01  1.949180973592E-01
  2.020196903006E-01  2.093800207477E-01  2.144352919686E-01  2.196126176579E-01
  2.249149446987E-01  2.303452911235E-01  2.359067478323E-01  2.416024803520E-01
  2.474357306376E-01  2.534098189181E-01  2.595281455861E-01  2.657941931331E-01
  2.722115281321E-01  2.787838032674E-01  2.855147594134E-01  2.924082277647E-01
  2.994681320159E-01  3.066984905953E-01  3.141034189522E-01  3.216871318994E-01
  3.294539460120E-01  3.374082820845E-01  3.455546676471E-01  3.538977395428E-01
  3.624422465663E-01  3.711930521674E-01  3.801551372189E-01  3.893336028520E-01
  3.987336733592E-01  4.083606991688E-01  4.182201598895E-01  4.232388018082E-01
  4.283176674299E-01  4.334574794391E-01  4.386589691923E-01  4.439228768226E-01
  4.492499513445E-01  4.546409507606E-01  4.600966421698E-01  4.656178018758E-01
  4.712052154983E-01  4.768596780843E-01  4.825819942213E-01  4.883729781520E-01
  4.942334538898E-01  5.001642553365E-01  5.061662264005E-01  5.122402211173E-01
  5.183871037707E-01  5.246077490160E-01  5.309030420042E-01  5.372738785082E-01
  5.437211650503E-01  5.502458190309E-01  5.568487688593E-01  5.635309540856E-01
  5.702933255346E-01  5.771368454410E-01  5.840624875863E-01  5.910712374374E-01
  5.981640922866E-01  6.053420613940E-01  6.126061661308E-01  6.199574401243E-01
  6.273969294058E-01  6.349256925587E-01  6.425448008694E-01  6.502553384798E-01
  6.580584025416E-01  6.659551033721E-01  6.739465646126E-01  6.820339233879E-01
  6.902183304686E-01  6.985009504342E-01  7.068829618394E-01  7.153655573815E-01
  7.239499440701E-01  7.326373433989E-01  7.414289915197E-01  7.503261394179E-01
  7.593300530909E-01  7.684420137280E-01  7.776633178928E-01  7.869952777075E-01
  7.964392210400E-01  8.059964916924E-01  8.156684495928E-01  8.254564709879E-01
  8.353619486397E-01  8.453862920234E-01  8.555309275277E-01  8.657972986580E-01
  8.761868662419E-01  8.867011086368E-01  8.973415219405E-01  9.081096202037E-01
  9.190069356462E-01  9.300350188739E-01  9.411954391004E-01  9.524897843696E-01
  9.639196617821E-01  9.754866977235E-01  9.871925380961E-01  9.990388485533E-01
  1.011027314736E+00  1.023159642513E+00  1.035437558223E+00  1.047862808922E+00
  1.060437162629E+00  1.073162408580E+00  1.086040357483E+00  1.099072841773E+00
  1.112261715874E+00  1.125608856465E+00  1.139116162742E+00  1.152785556695E+00
  1.166618983376E+00  1.180618411176E+00  1.194785832110E+00  1.209123262095E+00
  1.223632741241E+00  1.238316334136E+00  1.253176130145E+00  1.268214243707E+00
  1.283432814631E+00  1.298834008407E+00  1.314420016508E+00  1.330193056706E+00
  1.346155373386E+00  1.362309237867E+00  1.378656948721E+00  1.395200832106E+00
  1.411943242091E+00  1.428886560996E+00  1.446033199728E+00  1.463385598125E+00
  1.480946225303E+00  1.498717580006E+00  1.516702190966E+00  1.534902617258E+00
  1.553321448665E+00  1.571961306049E+00  1.590824841722E+00  1.609914739822E+00
  1.629233716700E+00  1.648784521301E+00  1.668569935556E+00  1.688592774783E+00
  1.708855888080E+00  1.729362158737E+00  1.750114504642E+00  1.771115878698E+00
  1.792369269242E+00  1.813877700473E+00  1.835644232879E+00  1.857671963673E+00
  1.879964027237E+00  1.902523595564E+00  1.925353878711E+00  1.948458125255E+00
  1.971839622759E+00  1.995501698232E+00  2.019447718610E+00  2.043681091234E+00
  2.068205264329E+00  2.093023727500E+00  2.118140012230E+00  2.143557692377E+00
  2.169280384686E+00  2.195311749302E+00  2.221655490294E+00  2.248315356177E+00
  2.275295140451E+00  2.302598682137E+00  2.330229866322E+00  2.358192624718E+00
  2.386490936215E+00  2.415128827449E+00  2.444110373379E+00  2.473439697859E+00
  2.503120974234E+00  2.533158425924E+00  2.563556327036E+00  2.594319002960E+00
  2.625450830996E+00  2.656956240967E+00  2.688839715859E+00  2.721105792449E+00
  2.753759061959E+00  2.786804170702E+00  2.820245820751E+00  2.854088770600E+00
  2.888337835847E+00  2.922997889877E+00  2.958073864556E+00  2.993570750930E+00
  3.029493599941E+00  3.065847523141E+00  3.102637693418E+00  3.139869345739E+00
  3.177547777888E+00  3.215678351223E+00  3.254266491438E+00  3.293317689335E+00
  3.332837501607E+00  3.372831551626E+00  3.413305530246E+00  3.454265196609E+00
  3.495716378968E+00  3.537664975516E+00  3.580116955222E+00  3.623078358684E+00
  3.666555298989E+00  3.710553962577E+00  3.755080610127E+00  3.800141577449E+00
  3.845743276378E+00  3.891892195695E+00  3.938594902043E+00  3.985858040868E+00
  4.033688337358E+00  4.082092597406E+00  4.131077708575E+00  4.180650641078E+00
  4.230818448771E+00  4.281588270156E+00  4.332967329398E+00  4.384962937351E+00
  4.437582492599E+00  4.490833482510E+00  4.544723484301E+00  4.599260166112E+00
  4.654451288106E+00  4.710304703563E+00  4.766828360006E+00  4.824030300326E+00
  4.881918663930E+00  4.940501687897E+00  4.999787708151E+00  5.059785160649E+00
  5.120502582577E+00  5.181948613568E+00  5.244131996931E+00  5.307061580894E+00
  5.370746319865E+00  5.435195275703E+00  5.500417619012E+00  5.566422630440E+00
  5.633219702005E+00  5.700818338429E+00  5.769228158490E+00  5.838458896392E+00
  5.908520403149E+00  5.979422647987E+00  6.051175719762E+00  6.123789828400E+00
  6.197275306340E+00  6.271642610016E+00  6.346902321337E+00  6.423065149193E+00
  6.500141930983E+00  6.578143634155E+00  6.657081357765E+00  6.736966334058E+00
  6.817809930066E+00  6.899623649227E+00  6.982419133018E+00  7.066208162614E+00
  7.151002660566E+00  7.236814692492E+00  7.323656468802E+00  7.411540346428E+00
  7.500478830585E+00  7.590484576552E+00  7.681570391471E+00  7.773749236168E+00
  7.867034227002E+00  7.961438637726E+00  8.056975901379E+00  8.153659612196E+00
  8.251503527542E+00  8.350521569872E+00  8.450727828711E+00  8.552136562655E+00
  8.654762201407E+00  8.758619347824E+00  8.863722779998E+00  8.970087453358E+00
  9.077728502798E+00  9.186661244832E+00  9.296901179770E+00  9.408463993927E+00
  9.521365561854E+00  9.635621948597E+00  9.751249411980E+00  9.868264404924E+00
  9.986683577783E+00  1.010652378072E+01  1.022780206608E+01  1.035053569088E+01
  1.047474211917E+01  1.060043902460E+01  1.072764429289E+01  1.085637602441E+01
  1.098665253670E+01  1.111849236714E+01  1.125191427555E+01  1.138693724685E+01
  1.152358049382E+01  1.166186345974E+01  1.180180582126E+01  1.194342749111E+01
  1.208674862101E+01  1.223178960446E+01  1.237857107971E+01  1.252711393267E+01
  1.267743929986E+01  1.282956857146E+01  1.298352339432E+01  1.313932567505E+01
  1.329699758315E+01  1.345656155415E+01  1.361804029280E+01  1.378145677631E+01
  1.394683425763E+01  1.411419626872E+01  1.428356662394E+01  1.445496942343E+01
  1.462842905651E+01  1.480397020519E+01  1.498161784765E+01  1.516139726182E+01
  1.534333402896E+01  1.552745403731E+01  1.571378348576E+01  1.590234888759E+01
  1.609317707424E+01  1.628629519913E+01  1.648173074152E+01  1.667951151042E+01
  1.687966564854E+01  1.708222163633E+01  1.728720829596E+01  1.749465479551E+01
  1.770459065306E+01  1.791704574090E+01  1.813205028979E+01  1.834963489327E+01
  1.856983051198E+01  1.879266847813E+01  1.901818049987E+01  1.924639866586E+01
  1.947735544985E+01  1.971108371525E+01  1.994761671984E+01  2.018698812047E+01
  2.042923197792E+01  2.067438276165E+01  2.092247535479E+01  2.117354505905E+01
  2.142762759976E+01  2.168475913096E+01  2.194497624053E+01  2.220831595542E+01
  2.247481574688E+01  2.274451353584E+01  2.301744769827E+01  2.329365707065E+01
  2.357318095550E+01  2.385605912697E+01  2.414233183649E+01  2.443203981853E+01
  2.472522429635E+01  2.502192698791E+01  2.532219011176E+01  2.562605639310E+01
  2.593356906982E+01  2.624477189866E+01  2.655970916144E+01  2.687842567138E+01
  2.720096677944E+01  2.752737838079E+01  2.785770692136E+01  2.819199940441E+01
  2.853030339727E+01  2.887266703803E+01  2.921913904249E+01  2.956976871100E+01
  2.992460593553E+01  3.028370120676E+01  3.064710562124E+01  3.101487088870E+01
  3.138704933936E+01  3.176369393143E+01  3.214485825861E+01  3.253059655771E+01
  3.292096371640E+01  3.331601528100E+01  3.371580746437E+01  3.412039715395E+01
  3.452984191979E+01  3.494420002283E+01  3.536353042311E+01  3.578789278818E+01
  3.621734750164E+01  3.665195567166E+01  3.709177913972E+01  3.753688048940E+01
  3.798732305527E+01  3.844317093193E+01  3.890448898312E+01  3.937134285091E+01
  3.984379896512E+01  4.032192455271E+01  4.080578764734E+01  4.129545709911E+01
  4.179100258430E+01  4.229249461531E+01  4.280000455069E+01  4.331360460530E+01
  4.383336786056E+01  4.435936827489E+01
</grid-data>
</grid>
<valence-charge total-charge="13" is-unscreening-charge="yes"
 rescaled-to-z-pseudo="no">
<radfunc>
<data npts="458">
  8.444325084159E-04  8.472127203778E-04  8.615282653768E-04  9.042614193553E-04
  1.003089582670E-03  1.202755554146E-03  1.571883334788E-03  2.152141892638E-03
  3.005156444786E-03  4.267540383782E-03  6.035137597715E-03  8.369621362491E-03
  1.176374079292E-02  1.597555884885E-02  2.086108561117E-02  2.732519035106E-02
  3.587382602628E-02  4.506410786034E-02  5.665284458622E-02  7.125688170869E-02
  8.964737659821E-02  1.077250885023E-01  1.294362523837E-01  1.554932748385E-01
  1.867421430550E-01  2.241854463709E-01  2.690086888967E-01  3.083014228540E-01
  3.532059748837E-01  4.044880360126E-01  4.630092431469E-01  5.297371664820E-01
  6.057558325617E-01  6.922766693432E-01  7.906497082465E-01  9.023748145334E-01
  1.029112639560E+00  1.172694894527E+00  1.278760274951E+00  1.393844511035E+00
  1.518627501378E+00  1.653827300612E+00  1.800200178123E+00  1.958540260895E+00
  2.129678682043E+00  2.314482147845E+00  2.513850827009E+00  2.728715456641E+00
  2.960033550178E+00  3.208784583620E+00  3.475964028027E+00  3.762576088878E+00
  4.069625006939E+00  4.398104771324E+00  4.748987094112E+00  5.123207497956E+00
  5.521649374503E+00  5.945125882997E+00  6.394359576456E+00  6.869959668244E+00
  7.372396886259E+00  7.901975906348E+00  8.458805412634E+00  9.042765901216E+00
  9.653475426610E+00  1.029025358823E+01  1.095208416801E+01  1.129197533392E+01
  1.163757695987E+01  1.198865054950E+01  1.234492947758E+01  1.270611784797E+01
  1.307188938726E+01  1.344188638394E+01  1.381571868343E+01  1.419296275029E+01
  1.457316080937E+01  1.495582007883E+01  1.534041210797E+01  1.572637223415E+01
  1.611309917328E+01  1.649995475897E+01  1.688626384594E+01  1.727131439377E+01
  1.765435774724E+01  1.803460912959E+01  1.841124836540E+01  1.878342084932E+01
  1.915023877673E+01  1.951078265205E+01  1.986410308944E+01  2.020922292007E+01
  2.054513961859E+01  2.087082806040E+01  2.118524361913E+01  2.148732561229E+01
  2.177600110007E+01  2.205018904023E+01  2.230880479860E+01  2.255076501153E+01
  2.277499279310E+01  2.298042327565E+01  2.316600946798E+01  2.333072841125E+01
  2.347358760707E+01  2.359363168785E+01  2.368994929366E+01  2.376168011453E+01
  2.380802205150E+01  2.382823844420E+01  2.382166530708E+01  2.378771851098E+01
  2.372590084171E+01  2.363580886230E+01  2.351713950137E+01  2.336969628612E+01
  2.319339513568E+01  2.298826962790E+01  2.275447565198E+01  2.249229535865E+01
  2.220214032128E+01  2.188455382334E+01  2.154021219196E+01  2.116992510257E+01
  2.077463478717E+01  2.035541408712E+01  1.991346330263E+01  1.945010580279E+01
  1.896678237440E+01  1.846504430321E+01  1.794654519823E+01  1.741303158791E+01
  1.686633233636E+01  1.630834694771E+01  1.574103284702E+01  1.516639174666E+01
  1.458645522713E+01  1.400326968027E+01  1.341888078069E+01  1.283531766747E+01
  1.225457703132E+01  1.167860731357E+01  1.110929323063E+01  1.054844084111E+01
  9.997763372660E+00  9.458868020301E+00  8.933243918815E+00  8.422251477404E+00
  7.927113245930E+00  7.448906458752E+00  6.988557374606E+00  6.546837499846E+00
  6.124361748142E+00  5.721588553305E+00  5.338821914105E+00  4.976215311801E+00
  4.633777403685E+00  4.311379360354E+00  4.008763681808E+00  3.725554298820E+00
  3.461267742424E+00  3.215325146508E+00  2.987064837139E+00  2.775755257760E+00
  2.580607981937E+00  2.400790574823E+00  2.235439080561E+00  2.083669934779E+00
  1.944591128218E+00  1.817312478330E+00  1.700954898978E+00  1.594658592843E+00
  1.497590125412E+00  1.408948372004E+00  1.327969359067E+00  1.253930046838E+00
  1.186151121608E+00  1.123998881817E+00  1.066886312821E+00  1.014273450563E+00
  9.656671349979E-01  9.206202506025E-01  8.787305446113E-01  8.396389334764E-01
  8.030268234632E-01  7.686128177799E-01  7.361503218709E-01  7.054254486371E-01
  6.762542587368E-01  6.484799308747E-01  6.219703150541E-01  5.966157057467E-01
  5.723265382623E-01  5.490311980536E-01  5.266731635152E-01  5.052054505176E-01
  4.845843795320E-01  4.647685334811E-01  4.457195080034E-01  4.274013192647E-01
  4.097803205067E-01  3.928250479002E-01  3.765060789522E-01  3.607958966942E-01
  3.456687596135E-01  3.311005773941E-01  3.170687924937E-01  3.035522675560E-01
  2.905311786306E-01  2.779869141528E-01  2.659019796079E-01  2.542599077902E-01
  2.430451745442E-01  2.322431198664E-01  2.218398742058E-01  2.118222898500E-01
  2.021778771930E-01  1.928947457315E-01  1.839615496059E-01  1.753674375005E-01
  1.671020067112E-01  1.591552611890E-01  1.515175733626E-01  1.441796495442E-01
  1.371324987224E-01  1.303674045477E-01  1.238759003157E-01  1.176497467597E-01
  1.116809124633E-01  1.059615567110E-01  1.004840145970E-01  9.524078422036E-02
  9.022451579245E-02  8.542800250024E-02  8.084417296432E-02  7.646608514158E-02
  7.228692152797E-02  6.829998552300E-02  6.449869882449E-02  6.087659972847E-02
  5.742734221574E-02  5.414469571351E-02  5.102254542667E-02  4.805489314032E-02
  4.523585840127E-02  4.255967999297E-02  4.002071762446E-02  3.761345376043E-02
  3.533249552549E-02  3.317257662203E-02  3.112855920692E-02  2.919543567821E-02
  2.736833032885E-02  2.564250082991E-02  2.401333951121E-02  2.247637441286E-02
  2.102727008579E-02  1.966182812457E-02  1.837598742049E-02  1.716582412634E-02
  1.602755132924E-02  1.495751843302E-02  1.395221025099E-02  1.300824581700E-02
  1.212237692373E-02  1.129148639983E-02  1.051258613969E-02  9.782814901257E-03
  9.099435888894E-03  8.459834139280E-03  7.861513729228E-03  7.302094824803E-03
  6.779310591396E-03  6.291003984432E-03  5.835124440232E-03  5.409724486108E-03
  5.012956288276E-03  4.643068155427E-03  4.298401014977E-03  3.977384878122E-03
  3.678535308766E-03  3.400449910379E-03  3.141804843691E-03  2.901351387034E-03
  2.677912549991E-03  2.470379749878E-03  2.277709559488E-03  2.098920533427E-03
  1.933090119339E-03  1.779351659303E-03  1.636891485745E-03  1.504946115315E-03
  1.382799543315E-03  1.269780640534E-03  1.165260653578E-03  1.068650809172E-03
  9.794000222890E-04  8.969927074384E-04  8.209466919741E-04  7.508112298486E-04
  6.861651138816E-04  6.266148842877E-04  5.717931309338E-04  5.213568865702E-04
  4.749861080861E-04  4.323822426889E-04  3.932668757881E-04  3.573804572737E-04
  3.244811028224E-04  2.943434668275E-04  2.667576835425E-04  2.415283730350E-04
  2.184737085824E-04  1.974245421880E-04  1.782235849627E-04  1.607246391942E-04
  1.447918790265E-04  1.302991767703E-04  1.171294719583E-04  1.051741804318E-04
  9.433264115707E-05  8.451159644765E-05  7.562470838693E-05  6.759210245007E-05
  6.033993583183E-05  5.380000267435E-05  4.790935689807E-05  4.260995693296E-05
  3.784833456711E-05  3.357528349873E-05  2.974556635336E-05  2.631763929081E-05
  2.325339309809E-05  2.051790977599E-05  1.807923371046E-05  1.590815659610E-05
  1.397801534708E-05  1.226450229159E-05  1.074548699980E-05  9.400849142711E-06
  8.212321820342E-06  7.163344834041E-06  6.238927408515E-06  5.425519896260E-06
  4.710894020200E-06  4.084031230488E-06  3.535018768872E-06  3.054953049399E-06
  2.635849977879E-06  2.270561844871E-06  1.952700438281E-06  1.676566032403E-06
  1.437081920397E-06  1.229734167272E-06  1.050516270306E-06  8.958784238462E-07
  7.626810954863E-07  6.481526309302E-07  5.498506153085E-07  4.656267294401E-07
  3.935948504320E-07  3.321021571022E-07  2.797030119363E-07  2.351354026043E-07
  1.972997374163E-07  1.652398004318E-07  1.381256831884E-07  1.152385211400E-07
  9.595687382580E-08  7.974459848078E-08  6.614007720766E-08  5.474666790386E-08
  4.522425885231E-08  3.728181620281E-08  3.067082247153E-08  2.517951264898E-08
  2.062782252002E-08  1.686297135433E-08  1.375560821945E-08  1.119645780341E-08
  9.093407814184E-09  7.368985759168E-09  5.958178210535E-09  4.806550547246E-09
  3.868629647585E-09  3.106516106279E-09  2.488696286924E-09  1.989027914075E-09
  1.585875981006E-09  1.261378519945E-09  1.000824272752E-09  7.921265323240E-10
  6.253794188570E-10  4.924846301887E-10  3.868382806955E-10  3.030688366202E-10
  2.368183843765E-10  1.845605483149E-10  1.434493206633E-10  1.111938928091E-10
  8.595529665736E-11  6.626128933008E-11  5.093645482035E-11  3.904496224368E-11
  2.984382100599E-11  2.274481659894E-11  1.728360410317E-11  1.309468631536E-11
  9.891215499794E-12  7.448737225415E-12  5.592146116204E-12  4.185250600425E-12
  3.122450385103E-12  2.322119453716E-12  1.721361536977E-12  1.271866533111E-12
  9.366472343739E-13  6.874776512181E-13  5.028886701056E-13  3.666049765603E-13
  2.663301757549E-13  1.928057406309E-13  1.390845631063E-13  9.997211594088E-14
  7.159804741520E-14  5.108894572332E-14  3.631926581715E-14  2.572244169310E-14
  1.814816605243E-14  1.275495375570E-14  8.929570023634E-15  6.226835559781E-15
  4.324828225599E-15  2.991672966582E-15  2.061019381425E-15  1.414006465453E-15
  9.660519203179E-16  6.572149276986E-16  4.451948173249E-16  3.002659463926E-16
  2.016288364278E-16  1.347928226163E-16  8.970674770891E-17  5.942976188041E-17
  3.919036650844E-17  2.572329812988E-17  1.680431345024E-17  1.092537239818E-17
  7.068821943414E-18  4.551198748669E-18  2.357929573391E-18  0.000000000000E+00
  0.000000000000E+00  0.000000000000E+00  0.000000000000E+00  0.000000000000E+00
  0.000000000000E+00  0.000000000000E+00
</data>
</radfunc>
</valence-charge>
<pseudocore-charge matching-radius="0.698500950434"
 number-of-continuous-derivatives="4">
<annotation model-charge-form="Teter function with specified parameters" />
<radfunc>
<data npts="291">
  1.225289486543E+02  1.225188068311E+02  1.224875139191E+02  1.224357191400E+02
  1.223637150331E+02  1.222690520707E+02  1.221484296450E+02  1.220103399291E+02
  1.218551153781E+02  1.216741558786E+02  1.214702569722E+02  1.212487211754E+02
  1.209811054229E+02  1.207017522024E+02  1.204228324472E+02  1.201017384440E+02
  1.197322260515E+02  1.193822016156E+02  1.189889798880E+02  1.185473931789E+02
  1.180516994795E+02  1.176119304529E+02  1.171298992649E+02  1.166017390773E+02
  1.160232700628E+02  1.153899828455E+02  1.146970231277E+02  1.141350212565E+02
  1.135341938797E+02  1.128920869973E+02  1.122061266035E+02  1.114736185021E+02
  1.106917492613E+02  1.098575885239E+02  1.089680929228E+02  1.080201118758E+02
  1.070103955685E+02  1.059356054634E+02  1.051812433842E+02  1.043954167907E+02
  1.035770898664E+02  1.027252207090E+02  1.018387646703E+02  1.009166781085E+02
  9.995792258263E+01  9.896146951943E+01  9.792630538300E+01  9.685143737768E+01
  9.573589971364E+01  9.457876046398E+01  9.337912904037E+01  9.213616431182E+01
  9.084908338835E+01  8.951717108710E+01  8.813979009342E+01  8.671639182361E+01
  8.524652798808E+01  8.372986284532E+01  8.216618612619E+01  8.055542659630E+01
  7.889766620986E+01  7.719315479294E+01  7.544232517537E+01  7.364580867101E+01
  7.180445078309E+01  6.991932698711E+01  6.799175841666E+01  6.701254116349E+01
  6.602332724886E+01  6.502435767023E+01  6.401589155513E+01  6.299820657696E+01
  6.197159935110E+01  6.093638580873E+01  5.989290154558E+01  5.884150214252E+01
  5.778256345514E+01  5.671648186888E+01  5.564367451670E+01  5.456457945551E+01
  5.347965579819E+01  5.238938379735E+01  5.129426487708E+01  5.019482160914E+01
  4.909159762951E+01  4.798515749153E+01  4.687608645171E+01  4.576499018423E+01
  4.465249442034E+01  4.353924450874E+01  4.242590489312E+01  4.131315850336E+01
  4.020170605660E+01  3.909226526508E+01  3.798556994740E+01  3.688236904039E+01
  3.578342550892E+01  3.468951515151E+01  3.360142529971E+01  3.251995340984E+01
  3.144590554623E+01  3.038009475551E+01  2.932333933198E+01  2.827646097526E+01
  2.724028284133E+01  2.621562748972E+01  2.520331472965E+01  2.420415936932E+01
  2.321896887328E+01  2.224854093375E+01  2.129366096288E+01  2.035509951398E+01
  1.943360964075E+01  1.852992420483E+01  1.764475314300E+01  1.677878070660E+01
  1.593266268677E+01  1.510702364048E+01  1.430245413319E+01  1.351950801514E+01
  1.275869974943E+01  1.202050181080E+01  1.130534217490E+01  1.061360191881E+01
  9.945612953848E+00  9.301655912412E+00  8.681958210830E+00  8.086692310258E+00
  7.515974197581E+00  6.969862107912E+00  6.448355509678E+00  5.951394372407E+00
  5.478858736154E+00  5.030568600023E+00  4.606284145476E+00  4.205706307968E+00
  3.828477708054E+00  3.474183950295E+00  3.142355295258E+00  2.832468706468E+00
  2.543950270529E+00  2.276177984666E+00  2.028484901785E+00  1.800162618801E+00
  1.590465089491E+00  1.398612738548E+00  1.223796848965E+00  1.065184190318E+00
  9.219218511574E-01  7.931422345330E-01  6.779681718477E-01  5.755181067703E-01
  4.849112980015E-01  4.052729873319E-01  3.357394777670E-01  2.754630655996E-01
  2.236167702706E-01  1.793988067368E-01  1.420367469160E-01  1.107913196452E-01
  8.495980247588E-02  6.387896354882E-02  4.692751769744E-02  3.352806777394E-02
  2.314850988812E-02  1.530288967948E-02  9.551705765758E-03  5.501665953039E-03
  2.804911455321E-03  1.157734035155E-03  2.988204016626E-04  7.067137616218E-06
  9.901761618101E-05  4.259795564867E-04  8.708878127439E-04  1.344981472420E-03
  1.784367164127E-03  2.146541494969E-03  2.406944649695E-03  2.555614347755E-03
  2.594004592025E-03  2.532027047020E-03  2.385364619503E-03  2.173097116312E-03
  1.915668026280E-03  1.633209877954E-03  1.344233673594E-03  1.064676037013E-03
  8.072863982771E-04  5.813262267353E-04  3.925434426121E-04  2.433780632472E-04
  1.333501768235E-04  5.957869484544E-05  1.737911532683E-05  8.907104679690E-07
  3.687987088449E-06  1.933768140232E-05  4.187055274390E-05  6.614634745105E-05
  8.809995739899E-05  1.048664030240E-04  1.147912338105E-04  1.173407069889E-04
  1.129322061241E-04  1.027094425742E-04  8.828884052250E-05  7.150310542403E-05
  5.416545751277E-05  3.787368682806E-05  2.386751104509E-05  1.294625911405E-05
  5.447290106811E-06  1.279419145210E-06  5.353429877507E-10  9.250202169429E-07
  3.244805721209E-06  6.148049140577E-06  8.921338053855E-06  1.102476323590E-05
  1.213363545455E-05  1.214548732039E-05  1.115566717612E-05  9.408710574309E-06
  7.235293617561E-06  4.985638163351E-06  2.969679490901E-06  1.412283028228E-06
  4.286793709729E-07  2.160353941998E-08  0.000000000000E+00  0.000000000000E+00
  0.000000000000E+00  0.000000000000E+00  0.000000000000E+00  0.000000000000E+00
  0.000000000000E+00  0.000000000000E+00  0.000000000000E+00  0.000000000000E+00
  0.000000000000E+00  0.000000000000E+00  0.000000000000E+00  0.000000000000E+00
  0.000000000000E+00  0.000000000000E+00  0.000000000000E+00  0.000000000000E+00
  0.000000000000E+00  0.000000000000E+00  0.000000000000E+00  0.000000000000E+00
  0.000000000000E+00  0.000000000000E+00  0.000000000000E+00  0.000000000000E+00
  0.000000000000E+00  0.000000000000E+00  0.000000000000E+00  0.000000000000E+00
  0.000000000000E+00  0.000000000000E+00  0.000000000000E+00  0.000000000000E+00
  0.000000000000E+00  0.000000000000E+00  0.000000000000E+00  0.000000000000E+00
  0.000000000000E+00  0.000000000000E+00  0.000000000000E+00  0.000000000000E+00
  0.000000000000E+00  0.000000000000E+00  0.000000000000E+00  0.000000000000E+00
  0.000000000000E+00  0.000000000000E+00  0.000000000000E+00  0.000000000000E+00
  0.000000000000E+00  0.000000000000E+00  0.000000000000E+00  0.000000000000E+00
  0.000000000000E+00  0.000000000000E+00  0.000000000000E+00  0.000000000000E+00
  0.000000000000E+00  0.000000000000E+00  0.000000000000E+00
</data>
</radfunc>
</pseudocore-charge>
<semilocal-potentials set="scalar_relativistic">
<slps n="4" l="s" rc="1.66856993556">
<radfunc>
<data npts="291">
  7.203965598497E+01  7.197891110976E+01  7.179198702130E+01  7.148427244506E+01
  7.105992747267E+01  7.050803807013E+01  6.981448457939E+01  6.903351694204E+01
  6.817180274687E+01  6.718817842624E+01  6.610599743225E+01  6.496044279780E+01
  6.361686552767E+01  6.225922872073E+01  6.094724353958E+01  5.948807063707E+01
  5.787302230254E+01  5.640288096005E+01  5.481650617692E+01  5.311217600724E+01
  5.128969650489E+01  4.974763204736E+01  4.813261034821E+01  4.644718102175E+01
  4.469478374901E+01  4.287976403848E+01  4.100736632878E+01  3.956905913562E+01
  3.810477867734E+01  3.661764328164E+01  3.511098527807E+01  3.358832322391E+01
  3.205333039925E+01  3.050980014285E+01  2.896160871361E+01  2.741267645484E+01
  2.586692810342E+01  2.432825312223E+01  2.330828779163E+01  2.229426874904E+01
  2.128727393457E+01  2.028835035358E+01  1.929851004003E+01  1.831872636026E+01
  1.734993068625E+01  1.639300946226E+01  1.544880168314E+01  1.451809679709E+01
  1.360163304023E+01  1.270009620469E+01  1.181411883715E+01  1.094427985926E+01
  1.009110459755E+01  9.255065205716E+00  8.436581459014E+00  7.636021896967E+00
  6.853705288284E+00  6.089902389565E+00  5.344837967902E+00  4.618693056330E+00
  3.911607410523E+00  3.223682134906E+00  2.554982446629E+00  1.905540546346E+00
  1.275358565559E+00  6.644115612381E-01  7.265052936859E-02 -2.160563997084E-01
 -4.999945900648E-01 -7.791756019440E-01 -1.053611943603E+00 -1.323316982355E+00
 -1.588304857225E+00 -1.848590393463E+00 -2.104189019143E+00 -2.355116684104E+00
 -2.601389781483E+00 -2.843025072161E+00 -3.080039612377E+00 -3.312450684805E+00
 -3.540275733742E+00 -3.763532303994E+00 -3.982237985096E+00 -4.196410360029E+00
 -4.406066959761E+00 -4.611225223728E+00 -4.811902466866E+00 -5.008115853730E+00
 -5.199882380272E+00 -5.387218863859E+00 -5.570141942110E+00 -5.748668081169E+00
 -5.922813593949E+00 -6.092594668918E+00 -6.258027409891E+00 -6.419127887273E+00
 -6.575912201037E+00 -6.728396555661E+00 -6.876597347058E+00 -7.020531261367E+00
 -7.160215385255E+00 -7.295667327174E+00 -7.426905348737E+00 -7.553948505138E+00
 -7.676816793249E+00 -7.795531305783E+00 -7.910114389654E+00 -8.020589806451E+00
 -8.126982892755E+00 -8.229320717950E+00 -8.327632237035E+00 -8.421948436069E+00
 -8.512302467854E+00 -8.598729775696E+00 -8.681268203235E+00 -8.759958088631E+00
 -8.834842341649E+00 -8.905966502446E+00 -8.973378781155E+00 -9.037130077479E+00
 -9.097273979640E+00 -9.153866741989E+00 -9.206967240404E+00 -9.256636904315E+00
 -9.302939623668E+00 -9.345941628593E+00 -9.385711338704E+00 -9.422319178178E+00
 -9.455837351783E+00 -9.486339576178E+00 -9.513900759939E+00 -9.538596625118E+00
 -9.560503262859E+00 -9.579696615658E+00 -9.596251879728E+00 -9.610242822599E+00
 -9.621741014073E+00 -9.630814973061E+00 -9.637529239132E+00 -9.641943386031E+00
 -9.644111005011E+00 -9.644078698547E+00 -9.641885139217E+00 -9.637560263209E+00
 -9.631124681100E+00 -9.622589397866E+00 -9.611955936372E+00 -9.599216950537E+00
 -9.584357393277E+00 -9.567356268539E+00 -9.548188947064E+00 -9.526829965328E+00
 -9.503256162988E+00 -9.477449954832E+00 -9.449402488479E+00 -9.419116417213E+00