<?xml version="1.0" encoding="UTF-8" ?>
<psml version="1.1" energy_unit="hartree" length_unit="bohr"
 uuid="84404bb0-471d-11e8-588e-43cafbfe96c3"
 xmlns="http://esl.cecam.org/PSML/ns/1.1">
<provenance creator="ONCVPSP-3.3.0+psml-3.3.0-73 (fully-relativistic)"
 date="2018-04-23">
<annotation action="semilocal-pseudopotential-generation"
 action-cont="projectors-generation" />
<input-file name="oncvpsp-input">
<![CDATA[# atsym z nc nv iexc psfile
Rn 86 12 3 4 both
# n l f
1 0 2.0
2 0 2.0
2 1 6.0
3 0 2.0
3 1 6.0
3 2 10.0
4 0 2.0
4 1 6.0
4 2 10.0
5 0 2.0
5 1 6.0
4 3 14.0
5 2 10.0
6 0 2.0
6 1 6.0
# lmax
2
# l rc ep ncon nbas qcut
0 2.2 0.0 4 7 3.6
1 2.0 0.0 4 7 4.6
2 1.8 0.0 4 8 8.4
# lloc lpopt rc5 dvloc0
4 5 1.8 0.0
# l nproj debl
0 2 2.8
1 2 2.5
2 2 1.8
# icmod fcfact rcfact
3 6.0 1.34
# epsh1 epsh2 depsh
-12.0 12.0 0.02
# rlmax drl
6.0 0.01
 0
]]>
</input-file>
</provenance>
<pseudo-atom-spec atomic-label="Rn" atomic-number="86" z-pseudo="18"
 flavor="Hamann&apos;s oncvpsp" relativity="dirac" spin-dft="no"
 core-corrections="yes">
<annotation pseudo-energy="-109.904945034" />
<exchange-correlation>
<annotation oncvpsp-xc-code="4" oncvpsp-xc-type="GGA -- Perdew-Burke-Ernzerhof" />
<libxc-info number-of-functionals="2">
<functional name="Perdew, Burke &amp; Ernzerhof (GGA)" type="exchange" id="101" />
<functional name="Perdew, Burke &amp; Ernzerhof (GGA)" type="correlation"
 id="130" />
</libxc-info>
</exchange-correlation>
<valence-configuration total-valence-charge="18">
<shell n="5" l="d" occupation="10" />
<shell n="6" l="s" occupation="2" />
<shell n="6" l="p" occupation="6" />
</valence-configuration>
</pseudo-atom-spec>
<grid npts="457">
<annotation type="sampled from oncvpsp log grid"
 recipe="r(i:1..N) = r1*exp(a*(i-1)) + r=0; resampled"
 recipe-cont="r1: scale; a: step" scale="0.581395348837E-05"
 step="0.119285708653E-01" delta="0.500000000000E-02" rmax="44.0749834721" />
<grid-data>
  0.000000000000E+00  5.032944516527E-03  1.005291170046E-02  1.508097059243E-02
  2.032086102386E-02  2.549011784273E-02  3.085034629218E-02  3.602522532560E-02
  4.107639707330E-02  4.628043884812E-02  5.152548411822E-02  5.668474287617E-02
  6.236059941843E-02  6.779128537727E-02  7.282105115488E-02  7.822399976325E-02
  8.402781945494E-02  8.919194941589E-02  9.467345329450E-02  1.004918360615E-01
  1.066678014120E-01  1.118807563599E-01  1.173484732785E-01  1.230834026227E-01
  1.290986033132E-01  1.354077724720E-01  1.420252766125E-01  1.471997869097E-01
  1.525628239076E-01  1.581212563368E-01  1.638822031812E-01  1.698530427959E-01
  1.760414223571E-01  1.824552676560E-01  1.891027932499E-01  1.959925129832E-01
  2.031332508913E-01  2.105341525020E-01  2.156172890801E-01  2.208231529076E-01
  2.261547071114E-01  2.316149863599E-01  2.372070985906E-01  2.429342267789E-01
  2.487996307503E-01  2.548066490351E-01  2.609587007694E-01  2.672592876408E-01
  2.737119958816E-01  2.803204983102E-01  2.870885564214E-01  2.940200225276E-01
  3.011188419515E-01  3.083890552716E-01  3.158348006221E-01  3.234603160483E-01
  3.312699419190E-01  3.392681233967E-01  3.474594129680E-01  3.558484730347E-01
  3.644400785676E-01  3.732391198245E-01  3.822506051336E-01  3.914796637439E-01
  4.009315487454E-01  4.106116400583E-01  4.205254474958E-01  4.255717528658E-01
  4.306786139002E-01  4.358467572670E-01  4.410769183542E-01  4.463698413744E-01
  4.517262794709E-01  4.571469948246E-01  4.626327587625E-01  4.681843518676E-01
  4.738025640900E-01  4.794881948591E-01  4.852420531974E-01  4.910649578358E-01
  4.969577373298E-01  5.029212301778E-01  5.089562849399E-01  5.150637603592E-01
  5.212445254835E-01  5.274994597893E-01  5.338294533068E-01  5.402354067465E-01
  5.467182316274E-01  5.532788504069E-01  5.599181966118E-01  5.666372149712E-01
  5.734368615508E-01  5.803181038894E-01  5.872819211361E-01  5.943293041897E-01
  6.014612558400E-01  6.086787909101E-01  6.159829364010E-01  6.233747316378E-01
  6.308552284175E-01  6.384254911585E-01  6.460865970524E-01  6.538396362170E-01
  6.616857118516E-01  6.696259403938E-01  6.776614516786E-01  6.857933890987E-01
  6.940229097679E-01  7.023511846851E-01  7.107793989013E-01  7.193087516881E-01
  7.279404567084E-01  7.366757421889E-01  7.455158510952E-01  7.544620413083E-01
  7.635155858040E-01  7.726777728337E-01  7.819499061077E-01  7.913333049810E-01
  8.008293046407E-01  8.104392562964E-01  8.201645273720E-01  8.300065017004E-01
  8.399665797208E-01  8.500461786775E-01  8.602467328216E-01  8.705696936155E-01
  8.810165299389E-01  8.915887282981E-01  9.022877930377E-01  9.131152465542E-01
  9.240726295128E-01  9.351615010670E-01  9.463834390798E-01  9.577400403487E-01
  9.692329208329E-01  9.808637158829E-01  9.926340804735E-01  1.004545689439E+00
  1.016600237712E+00  1.028799440565E+00  1.041145033852E+00  1.053638774258E+00
  1.066282439549E+00  1.079077828824E+00  1.092026762770E+00  1.105131083923E+00
  1.118392656930E+00  1.131813368813E+00  1.145395129239E+00  1.159139870790E+00
  1.173049549239E+00  1.187126143830E+00  1.201371657556E+00  1.215788117447E+00
  1.230377574856E+00  1.245142105754E+00  1.260083811023E+00  1.275204816756E+00
  1.290507274557E+00  1.305993361851E+00  1.321665282194E+00  1.337525265580E+00
  1.353575568767E+00  1.369818475592E+00  1.386256297299E+00  1.402891372867E+00
  1.419726069341E+00  1.436762782173E+00  1.454003935559E+00  1.471451982786E+00
  1.489109406579E+00  1.506978719458E+00  1.525062464092E+00  1.543363213661E+00
  1.561883572225E+00  1.580626175092E+00  1.599593689193E+00  1.618788813463E+00
  1.638214279225E+00  1.657872850575E+00  1.677767324782E+00  1.697900532680E+00
  1.718275339072E+00  1.738894643141E+00  1.759761378858E+00  1.780878515405E+00
  1.802249057589E+00  1.823876046281E+00  1.845762558836E+00  1.867911709542E+00
  1.890326650056E+00  1.913010569857E+00  1.935966696695E+00  1.959198297056E+00
  1.982708676620E+00  2.006501180740E+00  2.030579194909E+00  2.054946145248E+00
  2.079605498991E+00  2.104560764979E+00  2.129815494158E+00  2.155373280088E+00
  2.181237759449E+00  2.207412612563E+00  2.233901563913E+00  2.260708382680E+00
  2.287836883272E+00  2.315290925872E+00  2.343074416982E+00  2.371191309986E+00
  2.399645605706E+00  2.428441352974E+00  2.457582649210E+00  2.487073641001E+00
  2.516918524693E+00  2.547121546989E+00  2.577687005553E+00  2.608619249619E+00
  2.639922680615E+00  2.671601752782E+00  2.703660973816E+00  2.736104905501E+00
  2.768938164367E+00  2.802165422340E+00  2.835791407408E+00  2.869820904297E+00
  2.904258755148E+00  2.939109860210E+00  2.974379178533E+00  3.010071728675E+00
  3.046192589419E+00  3.082746900492E+00  3.119739863298E+00  3.157176741658E+00
  3.195062862557E+00  3.233403616908E+00  3.272204460311E+00  3.311470913835E+00
  3.351208564801E+00  3.391423067578E+00  3.432120144389E+00  3.473305586122E+00
  3.514985253155E+00  3.557165076193E+00  3.599851057108E+00  3.643049269793E+00
  3.686765861030E+00  3.731007051363E+00  3.775779135979E+00  3.821088485611E+00
  3.866941547438E+00  3.913344846008E+00  3.960304984160E+00  4.007828643970E+00
  4.055922587697E+00  4.104593658750E+00  4.153848782655E+00  4.203694968046E+00
  4.254139307663E+00  4.305188979355E+00  4.356851247107E+00  4.409133462072E+00
  4.462043063617E+00  4.515587580381E+00  4.569774631345E+00  4.624611926921E+00
  4.680107270045E+00  4.736268557285E+00  4.793103779972E+00  4.850621025332E+00
  4.908828477636E+00  4.967734419368E+00  5.027347232400E+00  5.087675399189E+00
  5.148727503979E+00  5.210512234027E+00  5.273038380835E+00  5.336314841405E+00
  5.400350619502E+00  5.465154826936E+00  5.530736684859E+00  5.597105525078E+00
  5.664270791379E+00  5.732242040875E+00  5.801028945366E+00  5.870641292710E+00
  5.941088988223E+00  6.012382056081E+00  6.084530640754E+00  6.157545008443E+00
  6.231435548545E+00  6.306212775127E+00  6.381887328429E+00  6.458469976370E+00
  6.535971616086E+00  6.614403275479E+00  6.693776114785E+00  6.774101428163E+00
  6.855390645300E+00  6.937655333044E+00  7.020907197041E+00  7.105158083405E+00
  7.190419980406E+00  7.276705020171E+00  7.364025480413E+00  7.452393786178E+00
  7.541822511612E+00  7.632324381751E+00  7.723912274332E+00  7.816599221624E+00
  7.910398412284E+00  8.005323193231E+00  8.101387071550E+00  8.198603716409E+00
  8.296986961006E+00  8.396550804538E+00  8.497309414192E+00  8.599277127162E+00
  8.702468452688E+00  8.806898074121E+00  8.912580851010E+00  9.019531821222E+00
  9.127766203077E+00  9.237299397514E+00  9.348146990284E+00  9.460324754167E+00
  9.573848651217E+00  9.688734835032E+00  9.804999653052E+00  9.922659648889E+00
  1.004173156468E+01  1.016223234345E+01  1.028417913157E+01  1.040758928115E+01
  1.053248035253E+01  1.065887011676E+01  1.078677655816E+01  1.091621787686E+01
  1.104721249138E+01  1.117977904127E+01  1.131393638977E+01  1.144970362645E+01
  1.158710006996E+01  1.172614527080E+01  1.186685901405E+01  1.200926132222E+01
  1.215337245809E+01  1.229921292759E+01  1.244680348272E+01  1.259616512451E+01
  1.274731910600E+01  1.290028693528E+01  1.305509037850E+01  1.321175146304E+01
  1.337029248060E+01  1.353073599036E+01  1.369310482225E+01  1.385742208012E+01
  1.402371114508E+01  1.419199567882E+01  1.436229962696E+01  1.453464722249E+01
  1.470906298916E+01  1.488557174503E+01  1.506419860597E+01  1.524496898924E+01
  1.542790861711E+01  1.561304352051E+01  1.580040004276E+01  1.599000484327E+01
  1.618188490139E+01  1.637606752021E+01  1.657258033045E+01  1.677145129442E+01
  1.697270870995E+01  1.717638121447E+01  1.738249778904E+01  1.759108776251E+01
  1.780218081566E+01  1.801580698545E+01  1.823199666928E+01  1.845078062931E+01
  1.867218999686E+01  1.889625627682E+01  1.912301135214E+01  1.935248748837E+01
  1.958471733823E+01  1.981973394629E+01  2.005757075364E+01  2.029826160269E+01
  2.054184074192E+01  2.078834283082E+01  2.103780294479E+01  2.129025658013E+01
  2.154573965909E+01  2.180428853500E+01  2.206593999742E+01  2.233073127739E+01
  2.259870005272E+01  2.286988445335E+01  2.314432306679E+01  2.342205494359E+01
  2.370311960292E+01  2.398755703815E+01  2.427540772261E+01  2.456671261528E+01
  2.486151316666E+01  2.515985132466E+01  2.546176954056E+01  2.576731077505E+01
  2.607651850435E+01  2.638943672640E+01  2.670610996712E+01  2.702658328672E+01
  2.735090228616E+01  2.767911311360E+01  2.801126247096E+01  2.834739762061E+01
  2.868756639206E+01  2.903181718876E+01  2.938019899503E+01  2.973276138297E+01
  3.008955451956E+01  3.045062917380E+01  3.081603672388E+01  3.118582916457E+01
  3.156005911455E+01  3.193877982392E+01  3.232204518181E+01  3.270990972399E+01
  3.310242864068E+01  3.349965778436E+01  3.390165367778E+01  3.430847352191E+01
  3.472017520417E+01  3.513681730662E+01  3.555845911430E+01  3.598516062367E+01
  3.641698255116E+01  3.685398634177E+01  3.729623417787E+01  3.774378898801E+01
  3.819671445586E+01  3.865507502933E+01  3.911893592969E+01  3.958836316084E+01
  4.006342351877E+01  4.054418460100E+01  4.103071481621E+01  4.152308339400E+01
  4.202136039473E+01  4.252561671947E+01  4.303592412010E+01  4.355235520954E+01
  4.407498347206E+01
</grid-data>
</grid>
<valence-charge total-charge="18" is-unscreening-charge="yes"
 rescaled-to-z-pseudo="no">
<radfunc>
<data npts="457">
  8.354251529252E-02  8.355817002475E-02  8.360759206823E-02  8.369880012058E-02
  8.385244273427E-02  8.408267594181E-02  8.443162692518E-02  8.490755110829E-02
  8.553991545159E-02  8.640719192774E-02  8.755211065502E-02  8.899737495367E-02
  9.102269562260E-02  9.346279723623E-02  9.623104073548E-02  9.982822215614E-02
  1.045108967109E-01  1.094820734069E-01  1.156874816653E-01  1.234382118982E-01
  1.331230428173E-01  1.425857168233E-01  1.538966652095E-01  1.674158036146E-01
  1.835711995008E-01  2.028711861183E-01  2.259183527552E-01  2.460870222020E-01
  2.691091700523E-01  2.953775897179E-01  3.253358342486E-01  3.594839391121E-01
  3.983845825745E-01  4.426696615066E-01  4.930472405499E-01  5.503088071396E-01
  6.153367328453E-01  6.891118017276E-01  7.436867285450E-01  8.029794367864E-01
  8.673626439802E-01  9.372330136152E-01  1.013011827023E+00  1.095145517784E+00
  1.184106034448E+00  1.280390992735E+00  1.384523573372E+00  1.497052116465E+00
  1.618549357708E+00  1.749611245986E+00  1.890855276055E+00  2.042918264088E+00
  2.206453488197E+00  2.382127110642E+00  2.570613793698E+00  2.772591417224E+00
  2.988734803328E+00  3.219708352421E+00  3.466157496056E+00  3.728698875555E+00
  4.007909162375E+00  4.304312446975E+00  4.618366138402E+00  4.950445337709E+00
  5.300825675424E+00  5.669664637499E+00  6.056981446130E+00  6.257531989891E+00
  6.462635612467E+00  6.672246089503E+00  6.886304337919E+00  7.104737664804E+00
  7.327459010009E+00  7.554366185842E+00  7.785341117625E+00  8.020249089309E+00
  8.258937998693E+00  8.501237627275E+00  8.746958930131E+00  8.995893351709E+00
  9.247812173822E+00  9.502465902573E+00  9.759583701381E+00  1.001887287769E+01
  1.028001843137E+01  1.054268267308E+01  1.080650492154E+01  1.107110128844E+01
  1.133606456051E+01  1.160096418830E+01  1.186534639111E+01  1.212873438811E+01
  1.239062876522E+01  1.265050798756E+01  1.290782906680E+01  1.316202839275E+01
  1.341252273783E+01  1.365871044259E+01  1.389997278985E+01  1.413567557394E+01
  1.436517087071E+01  1.458779901271E+01  1.480289077241E+01  1.500976975513E+01
  1.520775500117E+01  1.539616379513E+01  1.557431467804E+01  1.574153065559E+01
  1.589714259371E+01  1.604049278955E+01  1.617093870368E+01  1.628785683628E+01
  1.639064672698E+01  1.647873505533E+01  1.655157981559E+01  1.660867453657E+01
  1.664955251429E+01  1.667379102246E+01  1.668101546279E+01  1.667090341512E+01
  1.664318854458E+01  1.659766432159E+01  1.653418750888E+01  1.645268136852E+01
  1.635313854179E+01  1.623562355471E+01  1.610027490263E+01  1.594730666920E+01
  1.577700963681E+01  1.558975184881E+01  1.538597858771E+01  1.516621173806E+01
  1.493104850816E+01  1.468115949113E+01  1.441728605275E+01  1.414023704131E+01
  1.385088482292E+01  1.355016065486E+01  1.323904941844E+01  1.291858374299E+01
  1.258983756173E+01  1.225391915035E+01  1.191196370844E+01  1.156512555290E+01
  1.121457000101E+01  1.086146502819E+01  1.050697279242E+01  1.015224112221E+01
  9.798395069354E+00  9.446528629825E+00  9.097696737079E+00  8.752907630836E+00
  8.413115701522E+00  8.079214905758E+00  7.752032841535E+00  7.432325563280E+00
  7.120773206786E+00  6.817976482310E+00  6.524454081042E+00  6.240641026073E+00
  5.966887984049E+00  5.703461538295E+00  5.450545408662E+00  5.208242588009E+00
  4.976578350459E+00  4.755504072654E+00  4.544901796577E+00  4.344589451305E+00
  4.154326641561E+00  3.973820903387E+00  3.802734321676E+00  3.640690400826E+00
  3.487281078324E+00  3.342073771637E+00  3.204618351144E+00  3.074453935933E+00
  2.951115414794E+00  2.834139601580E+00  2.723070941962E+00  2.617466697423E+00
  2.516901541943E+00  2.420971517181E+00  2.329297303098E+00  2.241526772920E+00
  2.157336814201E+00  2.076434411623E+00  1.998557002057E+00  1.923472128301E+00
  1.850976434449E+00  1.780893624102E+00  1.713070376194E+00  1.647371690028E+00
  1.583680158067E+00  1.521894970473E+00  1.461930844429E+00  1.403716850725E+00
  1.347195171104E+00  1.292319820057E+00  1.239054970697E+00  1.187371667251E+00
  1.137243688914E+00  1.088645951542E+00  1.041554097653E+00  9.959434594222E-01
  9.517884862917E-01  9.090623038770E-01  8.677366857767E-01  8.277831014386E-01
  7.891742445270E-01  7.518840716611E-01  7.158872663588E-01  6.811591765544E-01
  6.476756111253E-01  6.154126850951E-01  5.843466845265E-01  5.544539523383E-01
  5.257107937881E-01  4.980934003030E-01  4.715777903030E-01  4.461397656361E-01
  4.217548822403E-01  3.983984336548E-01  3.760454460286E-01  3.546706833062E-01
  3.342486613245E-01  3.147536695500E-01  2.961597994005E-01  2.784409779474E-01
  2.615710060283E-01  2.455235998093E-01  2.302724349207E-01  2.157911923674E-01
  2.020536054913E-01  1.890335073382E-01  1.767048778559E-01  1.650418904213E-01
  1.540189572565E-01  1.436107733729E-01  1.337923587175E-01  1.245390982738E-01
  1.158267799042E-01  1.076316297723E-01  9.993034522081E-02  9.270012501392E-02
  8.591869688438E-02  7.956434235027E-02  7.361591878694E-02  6.805287875807E-02
  6.285528662482E-02  5.800383246469E-02  5.347984334338E-02  4.926529199268E-02
  4.534280295749E-02  4.169565628402E-02  3.830778883056E-02  3.516379329140E-02
  3.224891503377E-02  2.954904685668E-02  2.705072178965E-02  2.474110405735E-02
  2.260797834426E-02  2.063973749969E-02  1.882536882916E-02  1.715443912218E-02
  1.561707856874E-02  1.420396371800E-02  1.290629963147E-02  1.171580138087E-02
  1.062467503674E-02  9.625598288519E-03  8.711700830014E-03  7.876544636747E-03
  7.114104252639E-03  6.418747194409E-03  5.785214572089E-03  5.208602013897E-03
  4.684340973392E-03  4.208180486550E-03  3.776169436244E-03  3.384639371829E-03
  3.030187922088E-03  2.709662830938E-03  2.420146637000E-03  2.158942010487E-03
  1.923557753993E-03  1.711695467552E-03  1.521236872964E-03  1.350231787727E-03
  1.196886735011E-03  1.059554172944E-03  9.367223239941E-04  8.270055833461E-04
  7.291354838915E-04  6.419521946461E-04  5.643965290509E-04  4.955024396115E-04
  4.343899756167E-04  3.802586811982E-04  3.323814116729E-04  2.900985468998E-04
  2.528125812489E-04  2.199830706602E-04  1.911219181594E-04  1.657889800571E-04
  1.435879758764E-04  1.241626858273E-04  1.071934203597E-04  9.239374699147E-05
  7.950746021729E-05  6.830578086634E-05  5.858477180142E-05  5.016295733942E-05
  4.287913423530E-05  3.659036251340E-05  3.117012485680E-05  2.650664368400E-05
  2.250134545485E-05  1.906746215937E-05  1.612876035494E-05  1.361838853085E-05
  1.147783399540E-05  9.655980898572E-06  8.108261423135E-06  6.795892596294E-06
  5.685191592628E-06  4.746962814077E-06  3.955950443106E-06  3.290350568609E-06
  2.731377378947E-06  2.262878300990E-06  1.870993336504E-06  1.543854206439E-06
  1.271319258279E-06  1.044740420771E-06  8.567588032215E-07  7.011258325984E-07
  5.725471006495E-07  4.665463548810E-07  3.793473116909E-07  3.077711973513E-07
  2.491481332466E-07  2.012406762619E-07  1.621780040457E-07  1.303993986809E-07
  1.046058318062E-07  8.371859019856E-08  6.684400403364E-08  5.324345130921E-08
  4.230791205130E-08  3.353643573580E-08  2.651796564755E-08  2.091603543562E-08
  1.645591665576E-08  1.291385233127E-08  1.010806119038E-08  7.891240889124E-09
  6.144336802663E-09  4.771376421304E-09  3.695198535758E-09  2.853931714311E-09
  2.198098496909E-09  1.688240654250E-09  1.292977143225E-09  9.874203579726E-10
  7.518882203925E-10  5.708598361568E-10  4.321310950723E-10  3.261339245059E-10
  2.453890942376E-10  1.840676812841E-10  1.376406749572E-10  1.025998588460E-10
  7.623615469464E-11  5.646414619230E-11  4.168359867538E-11  3.067052268116E-11
  2.249175428168E-11  1.643819364957E-11  1.197279827863E-11  8.690205069751E-12
  6.285486790433E-12  4.530059035734E-12  3.253165379284E-12  2.327698948088E-12
  1.659383182295E-12  1.178545471305E-12  8.338849359880E-13  5.877682720275E-13
  4.126921720606E-13  2.886330217749E-13  2.010688790258E-13  1.395088844722E-13
  9.640418886086E-14  6.634459981634E-14  4.546835438111E-14  3.103022790571E-14
  2.108679575725E-14  1.426801886431E-14  9.612171410373E-15  6.447051029335E-15
  4.304861898069E-15  2.861490598137E-15  1.893374810421E-15  1.247004277263E-15
  8.174514816223E-16  5.333275867831E-16  3.462893740993E-16  2.237546507642E-16
  1.438689910076E-16  9.204467572346E-17  5.859226788214E-17  3.710783353725E-17
  2.338017387205E-17  1.465411150215E-17  9.136365449939E-18  5.665809954580E-18
  3.494221075192E-18  2.143424664202E-18  1.307539503638E-18  7.931603608214E-19
  4.784066548429E-19  2.869019193179E-19  1.710563615802E-19  1.013872735583E-19
  5.973573546413E-20  3.498312695824E-20  2.036208128520E-20  0.000000000000E+00
  0.000000000000E+00  0.000000000000E+00  0.000000000000E+00  0.000000000000E+00
  0.000000000000E+00  0.000000000000E+00  0.000000000000E+00  0.000000000000E+00
  0.000000000000E+00  0.000000000000E+00  0.000000000000E+00  0.000000000000E+00
  0.000000000000E+00  0.000000000000E+00  0.000000000000E+00  0.000000000000E+00
  0.000000000000E+00  0.000000000000E+00  0.000000000000E+00  0.000000000000E+00
  0.000000000000E+00  0.000000000000E+00  0.000000000000E+00  0.000000000000E+00
  0.000000000000E+00  0.000000000000E+00  0.000000000000E+00  0.000000000000E+00
  0.000000000000E+00
</data>
</radfunc>
</valence-charge>
<pseudocore-charge matching-radius="0.913115246554"
 number-of-continuous-derivatives="4">
<annotation model-charge-form="Teter function with specified parameters" />
<radfunc>
<data npts="290">
  9.462671735782E+01  9.462165909968E+01  9.460653797213E+01  9.458130975639E+01
  9.454428939094E+01  9.449704946494E+01  9.443683733220E+01  9.436788168173E+01
  9.429033876830E+01  9.419989849961E+01  9.409794004761E+01  9.398709798847E+01
  9.385311086985E+01  9.371314220323E+01  9.357328343469E+01  9.341214404203E+01
  9.322652906960E+01  9.305052793145E+01  9.285260165939E+01  9.263007206544E+01
  9.237994809825E+01  9.215775128000E+01  9.191388394914E+01  9.164629616787E+01
  9.135275742241E+01  9.103084355741E+01  9.067792339969E+01  9.039117858848E+01
  9.008410460748E+01  8.975533543002E+01  8.940342480550E+01  8.902684337827E+01
  8.862397602323E+01  8.819311947114E+01  8.773248030810E+01  8.724017344733E+01
  8.671422118595E+01  8.615255297628E+01  8.575720103247E+01  8.534435269463E+01
  8.491332712249E+01  8.446342638028E+01  8.399393603435E+01  8.350412589634E+01
  8.299325092703E+01  8.246055231658E+01  8.190525875836E+01  8.132658793408E+01
  8.072374822925E+01  8.009594069890E+01  7.944236130417E+01  7.876220344148E+01
  7.805466078655E+01  7.731893047607E+01  7.655421665045E+01  7.575973438095E+01
  7.493471400483E+01  7.407840589127E+01  7.319008566068E+01  7.226905987827E+01
  7.131467224138E+01  7.032631027771E+01  6.930341256862E+01  6.824547650785E+01
  6.715206660168E+01  6.602282331054E+01  6.485747242586E+01  6.426119670390E+01
  6.365583496786E+01  6.304138143032E+01  6.241783758083E+01  6.178521253534E+01
  6.114352339198E+01  6.049279559232E+01  5.983306328780E+01  5.916436971059E+01
  5.848676754827E+01  5.780031932147E+01  5.710509776384E+01  5.640118620322E+01
  5.568867894320E+01  5.496768164389E+01  5.423831170089E+01  5.350069862103E+01
  5.275498439368E+01  5.200132385625E+01  5.123988505214E+01  5.047084957976E+01
  4.969441293078E+01  4.891078481573E+01  4.812018947512E+01  4.732286597409E+01
  4.651906847825E+01  4.570906650870E+01  4.489314517375E+01  4.407160537501E+01
  4.324476398519E+01  4.241295399519E+01  4.157652462752E+01  4.073584141356E+01
  3.989128623157E+01  3.904325730270E+01  3.819216914196E+01  3.733845246123E+01
  3.648255402117E+01  3.562493642919E+01  3.476607788027E+01  3.390647183781E+01
  3.304662665142E+01  3.218706510894E+01  3.132832391981E+01  3.047095312714E+01
  2.961551544611E+01  2.876258552624E+01  2.791274913552E+01  2.706660226457E+01
  2.622475014922E+01  2.538780621034E+01  2.455639090995E+01  2.373113052338E+01
  2.291265582714E+01  2.210160070328E+01  2.129860066115E+01  2.050429127800E+01
  1.971930656100E+01  1.894427723310E+01  1.817982894674E+01  1.742658042947E+01
  1.668514156659E+01  1.595611142695E+01  1.524007623832E+01  1.453760732033E+01
  1.384925898310E+01  1.317556640121E+01  1.251704347325E+01  1.187418067795E+01
  1.124744293915E+01  1.063726751230E+01  1.004406190632E+01  9.468201855135E+00
  8.910029354075E+00  8.369850776819E+00  7.847935089163E+00  7.344512176204E+00
  6.859771299864E+00  6.393859703785E+00  5.946881382586E+00  5.518896032276E+00
  5.109918198209E+00  4.719916636355E+00  4.348813902838E+00  3.996486185629E+00
  3.662763390978E+00  3.347429495620E+00  3.050223173997E+00  2.770838707660E+00
  2.508927181745E+00  2.264097970851E+00  2.035920513880E+00  1.823926374436E+00
  1.627611580198E+00  1.446439231386E+00  1.279842364967E+00  1.127227057793E+00
  9.879757482517E-01  8.614507525687E-01  7.469979484069E-01  6.439505951771E-01
  5.516332573844E-01  4.693657945763E-01  3.964673790425E-01  3.322605004437E-01
  2.760749150787E-01  2.272514966077E-01  1.851459447935E-01  1.491323092662E-01
  1.186062864947E-01  9.298825010053E-02  7.172597739777E-02  5.429703857575E-02
  4.021081926142E-02  2.901015225051E-02  2.027253993370E-02  1.361095528028E-02
  8.674216072947E-03  5.146934289292E-03  2.749049949886E-03  1.234966235395E-03
  3.923100352641E-04  4.034913683370E-05  2.810379869963E-05  2.321962783600E-04
  5.544868103803E-04  9.195483802709E-04  1.272035254835E-03  1.574001484723E-03
  1.802225398342E-03  1.945594410015E-03  2.002601270073E-03  1.978998243660E-03
  1.885649727483E-03  1.736616663670E-03  1.547498005045E-03  1.334045692327E-03
  1.111060427424E-03  8.915663042335E-04  6.862534422810E-04  5.031695133159E-04
  3.476337956693E-04  2.223414413289E-04  1.276212513661E-04  6.180761440814E-05
  2.168647712173E-05  2.976300382976E-06  8.078276670395E-07  1.017097293702E-05
  2.630295137173E-05  4.499857484230E-05  6.283100039519E-05  7.727870137996E-05
  8.676156482619E-05  9.059536411801E-05  8.887902480247E-05  8.233278810789E-05
  7.210738411151E-05  5.958458351749E-05  4.618806818434E-05  3.322064405594E-05
  2.173973441125E-05  1.247825007836E-05  5.812810491310E-06  1.776377025205E-06
  1.081211334927E-07  3.301731924483E-07  1.839057596592E-06  3.999244643551E-06
  6.227308698485E-06  8.057484829626E-06  9.182633639487E-06  9.468326164912E-06
  8.941467280674E-06  7.758116450511E-06  6.157538668215E-06  4.410749654296E-06
  2.771793926917E-06  1.438777890049E-06  5.295093862112E-07  7.384403587857E-08
  0.000000000000E+00  0.000000000000E+00  0.000000000000E+00  0.000000000000E+00
  0.000000000000E+00  0.000000000000E+00  0.000000000000E+00  0.000000000000E+00
  0.000000000000E+00  0.000000000000E+00  0.000000000000E+00  0.000000000000E+00
  0.000000000000E+00  0.000000000000E+00  0.000000000000E+00  0.000000000000E+00
  0.000000000000E+00  0.000000000000E+00  0.000000000000E+00  0.000000000000E+00
  0.000000000000E+00  0.000000000000E+00  0.000000000000E+00  0.000000000000E+00
  0.000000000000E+00  0.000000000000E+00  0.000000000000E+00  0.000000000000E+00
  0.000000000000E+00  0.000000000000E+00  0.000000000000E+00  0.000000000000E+00
  0.000000000000E+00  0.000000000000E+00  0.000000000000E+00  0.000000000000E+00
  0.000000000000E+00  0.000000000000E+00  0.000000000000E+00  0.000000000000E+00
  0.000000000000E+00  0.000000000000E+00
</data>
</radfunc>
</pseudocore-charge>
<semilocal-potentials set="scalar_relativistic">
<slps n="6" l="s" rc="2.20741261256">
<radfunc>
<data npts="290">
 -3.279834531130E+00 -3.281517053333E+00 -3.286544954103E+00 -3.294927515133E+00
 -3.307214613273E+00 -3.322870089542E+00 -3.342786482707E+00 -3.365542644398E+00
 -3.391066179081E+00 -3.420746291511E+00 -3.454092408210E+00 -3.490207586734E+00
 -3.533675383829E+00 -3.578864526976E+00 -3.623795933984E+00 -3.675290449654E+00
 -3.734246220210E+00 -3.789795010512E+00 -3.851856306237E+00 -3.921121796954E+00
 -3.998338140845E+00 -4.066372376281E+00 -4.140441262377E+00 -4.220999403146E+00
 -4.308519671911E+00 -4.403490546203E+00 -4.506412573373E+00 -4.589127552694E+00
 -4.676816160752E+00 -4.769692773152E+00 -4.867968956895E+00 -4.971851381011E+00
 -5.081539461709E+00 -5.197222732696E+00 -5.319077935041E+00 -5.447265825680E+00
 -5.581927709347E+00 -5.723181705342E+00 -5.821059479744E+00 -5.921927535193E+00
 -6.025798490467E+00 -6.132677611791E+00 -6.242562215393E+00 -6.355441063221E+00
 -6.471293755708E+00 -6.590090125894E+00 -6.711789639594E+00 -6.836340806722E+00
 -6.963680609181E+00 -7.093733951100E+00 -7.226413137439E+00 -7.361617387243E+00
 -7.499232387955E+00 -7.639129897336E+00 -7.781167399563E+00 -7.925187822011E+00
 -8.071019319159E+00 -8.218475129795E+00 -8.367353513508E+00 -8.517437772040E+00
 -8.668496360746E+00 -8.820283094928E+00 -8.972537455365E+00 -9.124984996896E+00
 -9.277337863462E+00 -9.429295412637E+00 -9.580544952358E+00 -9.655803414739E+00
 -9.730762592445E+00 -9.805380408442E+00 -9.879614213472E+00 -9.953420822946E+00
 -1.002675655580E+01 -1.009957727534E+01 -1.017183843210E+01 -1.024349510881E+01
 -1.031450206745E+01 -1.038481379848E+01 -1.045438457232E+01 -1.052316849318E+01
 -1.059111955517E+01 -1.065819170103E+01 -1.072433888335E+01 -1.078951512849E+01
 -1.085367460335E+01 -1.091677168505E+01 -1.097876103370E+01 -1.103959766848E+01
 -1.109923704702E+01 -1.115763514843E+01 -1.121474856013E+01 -1.127053456855E+01
 -1.132495125404E+01 -1.137795759007E+01 -1.142951354698E+01 -1.147958020042E+01
 -1.152811984464E+01 -1.157509611071E+01 -1.162047408987E+01 -1.166422046201E+01
 -1.170630362927E+01 -1.174669385463E+01 -1.178536340551E+01 -1.182228670194E+01
 -1.185744046907E+01 -1.189080389347E+01 -1.192235878261E+01 -1.195208972681E+01
 -1.197998426258E+01 -1.200603303639E+01 -1.203022996752E+01 -1.205257240846E+01
 -1.207306130129E+01 -1.209170132823E+01 -1.210850105424E+01 -1.212347305967E+01
 -1.213663406061E+01 -1.214800501462E+01 -1.215761120924E+01 -1.216548233099E+01
 -1.217165251209E+01 -1.217616035247E+01 -1.217904891463E+01 -1.218036568863E+01
 -1.218016252516E+01 -1.217849553403E+01 -1.217542494615E+01 -1.217101493660E+01
 -1.216533340701E+01 -1.215845172514E+01 -1.215044441986E+01 -1.214138882983E+01
 -1.213136470418E+01 -1.212045375381E+01 -1.210873915174E+01 -1.209630498160E+01
 -1.208323563323E+01 -1.206961514496E+01 -1.205552649254E+01 -1.204105082546E+01
 -1.202626665204E+01 -1.201124897600E+01 -1.199606838853E+01 -1.198079012146E+01
 -1.196547306933E+01 -1.195016879068E+01 -1.193492050122E+01 -1.191976207535E+01
 -1.190471707497E+01 -1.188979782854E+01 -1.187500458570E+01 -1.186032477526E+01
 -1.184573239524E+01 -1.183118756213E+01 -1.181663624317E+01 -1.180201018731E+01