<?xml version="1.0" encoding="UTF-8" ?>
<psml version="1.1" energy_unit="hartree" length_unit="bohr"
 uuid="eb4cafc0-515d-11e8-4893-1ee8de7f0d2c"
 xmlns="http://esl.cecam.org/PSML/ns/1.1">
<provenance creator="ONCVPSP-3.3.0+psml-3.3.0-73 (fully-relativistic)"
 date="2018-05-06">
<annotation action="semilocal-pseudopotential-generation"
 action-cont="projectors-generation" />
<input-file name="oncvpsp-input">
<![CDATA[# atsym z nc nv iexc psfile
Mn 25 3 4 4 both
# n l f
1 0 2.0
2 0 2.0
2 1 6.0
3 0 2.0
3 1 6.0
3 2 5.0
4 0 2.0
# lmax
2
# l rc ep ncon nbas qcut
0 1.1 0.0 4 7 11.0
1 1.1 0.0 4 7 10.8
2 1.35 0.0 4 7 11.4
# lloc lpopt rc5 dvloc0
4 5 1.1 0.0
# l nproj debl
0 2 1.0
1 2 1.0
2 2 1.0
# icmod fcfact
3 4 1.75
# epsh1 epsh2 depsh
-50.0 12.0 0.02
# rlmax drl
6.0 0.01
 0
]]>
</input-file>
</provenance>
<pseudo-atom-spec atomic-label="Mn" atomic-number="25" z-pseudo="15"
 flavor="Hamann&apos;s oncvpsp" relativity="dirac" spin-dft="no"
 core-corrections="yes">
<annotation pseudo-energy="-103.913640813" />
<exchange-correlation>
<annotation oncvpsp-xc-code="4" oncvpsp-xc-type="GGA -- Perdew-Burke-Ernzerhof" />
<libxc-info number-of-functionals="2">
<functional name="Perdew, Burke &amp; Ernzerhof (GGA)" type="exchange" id="101" />
<functional name="Perdew, Burke &amp; Ernzerhof (GGA)" type="correlation"
 id="130" />
</libxc-info>
</exchange-correlation>
<valence-configuration total-valence-charge="15">
<shell n="3" l="s" occupation="2" />
<shell n="3" l="p" occupation="6" />
<shell n="3" l="d" occupation="5" />
<shell n="4" l="s" occupation="2" />
</valence-configuration>
</pseudo-atom-spec>
<grid npts="458">
<annotation type="sampled from oncvpsp log grid"
 recipe="r(i:1..N) = r1*exp(a*(i-1)) + r=0; resampled"
 recipe-cont="r1: scale; a: step" scale="0.200000000000E-04"
 step="0.119285708653E-01" delta="0.500000000000E-02" rmax="44.3769870573" />
<grid-data>
  0.000000000000E+00  5.007342349535E-03  1.012179466165E-02  1.518430601833E-02
  2.021749050673E-02  2.536045174936E-02  3.069341316587E-02  3.584196802331E-02
  4.086744488362E-02  4.604501413403E-02  5.126337829839E-02  5.639639233938E-02
  6.204337627505E-02  6.744643678951E-02  7.245061657011E-02  7.782608083168E-02
  8.360037697896E-02  8.873823744356E-02  9.419185737129E-02  9.998064251273E-02
  1.061251912451E-01  1.113116283280E-01  1.167515314288E-01  1.224572876681E-01
  1.284418895367E-01  1.347189644807E-01  1.413028059321E-01  1.464509939291E-01
  1.517867496073E-01  1.573169067565E-01  1.630485481470E-01  1.689890146010E-01
  1.751459143940E-01  1.815271329993E-01  1.881408431876E-01  1.949955154940E-01
  2.020999290667E-01  2.094631829112E-01  2.145204619994E-01  2.196998440339E-01
  2.250042770683E-01  2.304367803338E-01  2.360004459582E-01  2.416984407254E-01
  2.475340078783E-01  2.535104689645E-01  2.596312257271E-01  2.658997620411E-01
  2.723196458958E-01  2.788945314263E-01  2.856281609931E-01  2.925243673121E-01
  2.995870756365E-01  3.068203059907E-01  3.142281754585E-01  3.218149005268E-01
  3.295847994851E-01  3.375422948838E-01  3.456919160515E-01  3.540383016727E-01
  3.625862024283E-01  3.713404836997E-01  3.803061283381E-01  3.894882395007E-01
  3.988920435552E-01  4.085228930548E-01  4.183862697847E-01  4.234069050222E-01
  4.284877878824E-01  4.336296413370E-01  4.388331970331E-01  4.440991953975E-01
  4.494283857422E-01  4.548215263711E-01  4.602793846876E-01  4.658027373038E-01
  4.713923701515E-01  4.770490785933E-01  4.827736675364E-01  4.885669515469E-01
  4.944297549654E-01  5.003629120250E-01  5.063672669693E-01  5.124436741729E-01
  5.185929982630E-01  5.248161142422E-01  5.311139076131E-01  5.374872745044E-01
  5.439371217985E-01  5.504643672601E-01  5.570699396672E-01  5.637547789432E-01
  5.705198362905E-01  5.773660743260E-01  5.842944672179E-01  5.913060008245E-01
  5.984016728344E-01  6.055824929084E-01  6.128494828233E-01  6.202036766172E-01
  6.276461207366E-01  6.351778741855E-01  6.428000086757E-01  6.505136087798E-01
  6.583197720852E-01  6.662196093502E-01  6.742142446624E-01  6.823048155983E-01
  6.904924733855E-01  6.987783830661E-01  7.071637236629E-01  7.156496883469E-01
  7.242374846070E-01  7.329283344223E-01  7.417234744354E-01  7.506241561286E-01
  7.596316460022E-01  7.687472257542E-01  7.779721924632E-01  7.873078587728E-01
  7.967555530781E-01  8.063166197150E-01  8.159924191516E-01  8.257843281814E-01
  8.356937401196E-01  8.457220650010E-01  8.558707297810E-01  8.661411785384E-01
  8.765348726809E-01  8.870532911530E-01  8.976979306469E-01  9.084703058146E-01
  9.193719494844E-01  9.304044128782E-01  9.415692658328E-01  9.528680970228E-01
  9.643025141870E-01  9.758741443573E-01  9.875846340896E-01  9.994356496986E-01
  1.011428877495E+00  1.023566024025E+00  1.035848816313E+00  1.048279002109E+00
  1.060858350134E+00  1.073588650336E+00  1.086471714140E+00  1.099509374710E+00
  1.112703487206E+00  1.126055929053E+00  1.139568600201E+00  1.153243423404E+00
  1.167082344485E+00  1.181087332618E+00  1.195260380610E+00  1.209603505177E+00
  1.224118747239E+00  1.238808172206E+00  1.253673870273E+00  1.268717956716E+00
  1.283942572196E+00  1.299349883063E+00  1.314942081660E+00  1.330721386639E+00
  1.346690043279E+00  1.362850323798E+00  1.379204527684E+00  1.395754982016E+00
  1.412504041800E+00  1.429454090302E+00  1.446607539386E+00  1.463966829858E+00
  1.481534431817E+00  1.499312844998E+00  1.517304599138E+00  1.535512254328E+00
  1.553938401380E+00  1.572585662197E+00  1.591456690143E+00  1.610554170425E+00
  1.629880820470E+00  1.649439390315E+00  1.669232662999E+00  1.689263454955E+00
  1.709534616415E+00  1.730049031812E+00  1.750809620193E+00  1.771819335636E+00
  1.793081167663E+00  1.814598141675E+00  1.836373319375E+00  1.858409799208E+00
  1.880710716798E+00  1.903279245400E+00  1.926118596345E+00  1.949232019501E+00
  1.972622803735E+00  1.996294277380E+00  2.020249808708E+00  2.044492806413E+00
  2.069026720090E+00  2.093855040731E+00  2.118981301219E+00  2.144409076834E+00
  2.170141985756E+00  2.196183689585E+00  2.222537893860E+00  2.249208348587E+00
  2.276198848770E+00  2.303513234955E+00  2.331155393774E+00  2.359129258500E+00
  2.387438809602E+00  2.416088075317E+00  2.445081132221E+00  2.474422105807E+00
  2.504115171077E+00  2.534164553130E+00  2.564574527767E+00  2.595349422101E+00
  2.626493615166E+00  2.658011538548E+00  2.689907677010E+00  2.722186569135E+00
  2.754852807964E+00  2.787911041660E+00  2.821365974160E+00  2.855222365850E+00
  2.889485034240E+00  2.924158854651E+00  2.959248760906E+00  2.994759746037E+00
  3.030696862990E+00  3.067065225346E+00  3.103870008050E+00  3.141116448146E+00
  3.178809845524E+00  3.216955563670E+00  3.255559030434E+00  3.294625738800E+00
  3.334161247665E+00  3.374171182637E+00  3.414661236829E+00  3.455637171671E+00
  3.497104817731E+00  3.539070075544E+00  3.581538916450E+00  3.624517383448E+00
  3.668011592049E+00  3.712027731154E+00  3.756572063927E+00  3.801650928694E+00
  3.847270739839E+00  3.893437988717E+00  3.940159244582E+00  3.987441155516E+00
  4.035290449383E+00  4.083713934775E+00  4.132718501993E+00  4.182311124016E+00
  4.232498857505E+00  4.283288843795E+00  4.334688309920E+00  4.386704569639E+00
  4.439345024475E+00  4.492617164769E+00  4.546528570746E+00  4.601086913595E+00
  4.656299956558E+00  4.712175556037E+00  4.768721662709E+00  4.825946322662E+00
  4.883857678534E+00  4.942463970676E+00  5.001773538324E+00  5.061794820784E+00
  5.122536358633E+00  5.184006794937E+00  5.246214876476E+00  5.309169454994E+00
  5.372879488454E+00  5.437354042315E+00  5.502602290823E+00  5.568633518313E+00
  5.635457120533E+00  5.703082605979E+00  5.771519597251E+00  5.840777832418E+00
  5.910867166407E+00  5.981797572404E+00  6.053579143273E+00  6.126222092992E+00
  6.199736758108E+00  6.274133599205E+00  6.349423202396E+00  6.425616280824E+00
  6.502723676194E+00  6.580756360309E+00  6.659725436632E+00  6.739642141872E+00
  6.820517847574E+00  6.902364061745E+00  6.985192430486E+00  7.069014739652E+00
  7.153842916528E+00  7.239689031526E+00  7.326565299904E+00  7.414484083503E+00
  7.503457892505E+00  7.593499387215E+00  7.684621379862E+00  7.776836836420E+00
  7.870158878457E+00  7.964600784999E+00  8.060175994419E+00  8.156898106352E+00
  8.254780883628E+00  8.353838254232E+00  8.454084313282E+00  8.555533325042E+00
  8.658199724942E+00  8.762098121642E+00  8.867243299101E+00  8.973650218691E+00
  9.081334021315E+00  9.190310029571E+00  9.300593749925E+00  9.412200874925E+00
  9.525147285424E+00  9.639449052849E+00  9.755122441483E+00  9.872183910781E+00
  9.990650117710E+00  1.011053791912E+01  1.023186437415E+01  1.035464674664E+01
  1.047890250760E+01  1.060464933769E+01  1.073190512975E+01  1.086068799130E+01
  1.099101624720E+01  1.112290844216E+01  1.125638334347E+01  1.139145994359E+01
  1.152815746291E+01  1.166649535247E+01  1.180649329670E+01  1.194817121626E+01
  1.209154927085E+01  1.223664786211E+01  1.238348763645E+01  1.253208948809E+01
  1.268247456194E+01  1.283466425669E+01  1.298868022777E+01  1.314454439050E+01
  1.330227892319E+01  1.346190627027E+01  1.362344914551E+01  1.378693053526E+01
  1.395237370168E+01  1.411980218610E+01  1.428923981233E+01  1.446071069008E+01
  1.463423921836E+01  1.480985008898E+01  1.498756829005E+01  1.516741910953E+01
  1.534942813884E+01  1.553362127651E+01  1.572002473183E+01  1.590866502861E+01
  1.609956900895E+01  1.629276383706E+01  1.648827700311E+01  1.668613632714E+01
  1.688636996307E+01  1.708900640263E+01  1.729407447946E+01  1.750160337321E+01
  1.771162261369E+01  1.792416208505E+01  1.813925203007E+01  1.835692305443E+01
  1.857720613109E+01  1.880013260466E+01  1.902573419592E+01  1.925404300627E+01
  1.948509152234E+01  1.971891262061E+01  1.995553957206E+01  2.019500604692E+01
  2.043734611949E+01  2.068259427292E+01  2.093078540419E+01  2.118195482905E+01
  2.143613828699E+01  2.169337194644E+01  2.195369240979E+01  2.221713671871E+01
  2.248374235934E+01  2.275354726765E+01  2.302658983486E+01  2.330290891288E+01
  2.358254381983E+01  2.386553434567E+01  2.415192075782E+01  2.444174380691E+01
  2.473504473260E+01  2.503186526939E+01  2.533224765262E+01  2.563623462445E+01
  2.594386943995E+01  2.625519587322E+01  2.657025822370E+01  2.688910132239E+01
  2.721177053826E+01  2.753831178472E+01  2.786877152613E+01  2.820319678445E+01
  2.854163514586E+01  2.888413476761E+01  2.923074438482E+01  2.958151331744E+01
  2.993649147725E+01  3.029572937497E+01  3.065927812747E+01  3.102718946500E+01
  3.139951573858E+01  3.177630992745E+01  3.215762564658E+01  3.254351715434E+01
  3.293403936019E+01  3.332924783251E+01  3.372919880650E+01  3.413394919218E+01
  3.454355658248E+01  3.495807926147E+01  3.537757621261E+01  3.580210712716E+01
  3.623173241269E+01  3.666651320164E+01  3.710651136006E+01  3.755178949638E+01
  3.800241097034E+01  3.845843990198E+01  3.891994118081E+01  3.938698047498E+01
  3.985962424068E+01  4.033793973156E+01  4.082199500834E+01  4.131185894844E+01
  4.180760125582E+01  4.230929247089E+01  4.281700398054E+01  4.333080802831E+01
  4.385077772465E+01  4.437698705735E+01
</grid-data>
</grid>
<valence-charge total-charge="15" is-unscreening-charge="yes"
 rescaled-to-z-pseudo="no">
<radfunc>
<data npts="458">
  1.672689241842E+00  1.678047206242E+00  1.694582664696E+00  1.721962426632E+00
  1.760047826371E+00  1.810158067112E+00  1.874075240321E+00  1.947337329003E+00
  2.029802807571E+00  2.126089616528E+00  2.234772818094E+00  2.353083165242E+00
  2.496312406087E+00  2.646180128535E+00  2.796172730089E+00  2.969279506261E+00
  3.169053442653E+00  3.358835987843E+00  3.572657019222E+00  3.813535437482E+00
  4.084855254130E+00  4.326359048716E+00  4.591900612902E+00  4.883813416672E+00
  5.204636059187E+00  5.557123015404E+00  5.944253375861E+00  6.259257782555E+00
  6.596989111529E+00  6.958959250432E+00  7.346750067024E+00  7.762009227966E+00
  8.206443812267E+00  8.681811223178E+00  9.189906822406E+00  9.732547624452E+00
  1.031155129818E+01  1.092870963058E+01  1.136220489333E+01  1.181392080567E+01
  1.228432246962E+01  1.277384220323E+01  1.328287159511E+01  1.381175261131E+01
  1.436076769216E+01  1.493012878130E+01  1.551996523603E+01  1.613031057821E+01
  1.676108805832E+01  1.741209502270E+01  1.808298609625E+01  1.877325521990E+01
  1.948221661565E+01  2.020898479125E+01  2.095245374333E+01  2.171127557134E+01
  2.248383877626E+01  2.326824658684E+01  2.406229573231E+01  2.486345616355E+01
  2.566885231262E+01  2.647524657293E+01  2.727902577556E+01  2.807619152836E+01
  2.886235537052E+01  2.963273976935E+01  3.038218604393E+01  3.074734482330E+01
  3.110517033381E+01  3.145491915405E+01  3.179582873314E+01  3.212711875275E+01
  3.244799267236E+01  3.275763946405E+01  3.305523554233E+01  3.333994689381E+01
  3.361093141000E+01  3.386734142561E+01  3.410832646305E+01  3.433303618242E+01
  3.454062353443E+01  3.473024811179E+01  3.490107969268E+01  3.505230196745E+01
  3.518311643763E+01  3.529274647359E+01  3.538044151490E+01  3.544548139446E+01
  3.548718076493E+01  3.550489360318E+01  3.549801776566E+01  3.546599956476E+01
  3.540833833388E+01  3.532459094583E+01  3.521437624734E+01  3.507737936983E+01
  3.491335587495E+01  3.472213569168E+01  3.450362680049E+01  3.425781861946E+01
  3.398478504675E+01  3.368468711421E+01  3.335777520749E+01  3.300439080989E+01
  3.262496772867E+01  3.222003276611E+01  3.179020580029E+01  3.133619924562E+01
  3.085881686741E+01  3.035895193084E+01  2.983758467081E+01  2.929577907600E+01
  2.873467898813E+01  2.815550352494E+01  2.755954184398E+01  2.694814727252E+01
  2.632273083748E+01  2.568475423794E+01  2.503572231086E+01  2.437717504869E+01
  2.371067923507E+01  2.303781977126E+01  2.236019077207E+01  2.167938651486E+01
  2.099699232889E+01  2.031457551475E+01  1.963367638502E+01  1.895579951674E+01
  1.828240530495E+01  1.761490190334E+01  1.695463763356E+01  1.630289393921E+01
  1.566087895337E+01  1.502972174063E+01  1.441046726579E+01  1.380407213173E+01
  1.321140111884E+01  1.263322454839E+01  1.207021648153E+01  1.152295375565E+01
  1.099191585011E+01  1.047748556389E+01  9.979950479511E+00  9.499505179781E+00
  9.036254177142E+00  8.590215509897E+00  8.161324954679E+00  7.749440800899E+00
  7.354349130135E+00  6.975770903787E+00  6.613375075073E+00  6.266795512690E+00
  5.935637193606E+00  5.619480527915E+00  5.317886659802E+00  5.030402299447E+00
  4.756564307898E+00  4.495904005635E+00  4.247951173796E+00  4.012237718401E+00
  3.788300968988E+00  3.575686584462E+00  3.373951040718E+00  3.182663676976E+00
  3.001408280889E+00  2.829784196448E+00  2.667405942926E+00  2.513898437362E+00
  2.368889791835E+00  2.232012476377E+00  2.102904255467E+00  1.981209096829E+00
  1.866577984769E+00  1.758669641008E+00  1.657151156243E+00  1.561698535966E+00
  1.471997164272E+00  1.387742189594E+00  1.308638836442E+00  1.234402647356E+00
  1.164759659355E+00  1.099446519217E+00  1.038210541961E+00  9.808097168845E-01
  9.270126655011E-01  8.765985556363E-01  8.293569759082E-01  7.850877746913E-01
  7.436008675660E-01  7.047160171179E-01  6.682625888040E-01  6.340792864357E-01
  6.020138706503E-01  5.719228635421E-01  5.436712424210E-01  5.171321254398E-01
  4.921864516080E-01  4.687226574737E-01  4.466363525203E-01  4.258299950936E-01
  4.062125704519E-01  3.876992723198E-01  3.702111891311E-01  3.536749959682E-01
  3.380226530519E-01  3.231911114957E-01  3.091220269230E-01  2.957614814487E-01
  2.830597144384E-01  2.709708623902E-01  2.594527082167E-01  2.484664401527E-01
  2.379764204549E-01  2.279499640159E-01  2.183571269607E-01  2.091705052492E-01
  2.003650432601E-01  1.919178522874E-01  1.838080388369E-01  1.760165425706E-01
  1.685259837088E-01  1.613205196683E-01  1.543857106824E-01  1.477083941273E-01
  1.412765672551E-01  1.350792780187E-01  1.291065236608E-01  1.233491567299E-01
  1.177987981801E-01  1.124477572098E-01  1.072889574947E-01  1.023158694710E-01
  9.752244833253E-02  9.290307740962E-02  8.845251660667E-02  8.416585558451E-02
  8.003847138423E-02  7.606599020036E-02  7.224425302352E-02  6.856928488515E-02
  6.503726744994E-02  6.164451471487E-02  5.838745158690E-02  5.526259512447E-02
  5.226653824119E-02  4.939593568208E-02  4.664749209520E-02  4.401795203227E-02
  4.150409172274E-02  3.910271247490E-02  3.681063556647E-02  3.462469849442E-02
  3.254175246045E-02  3.055866097296E-02  2.867229945926E-02  2.687955576088E-02
  2.517733142763E-02  2.356254369515E-02  2.203212804863E-02  2.058304127598E-02
  1.921226491641E-02  1.791680901390E-02  1.669371608907E-02  1.554006524715E-02
  1.445297634476E-02  1.342961414395E-02  1.246719238762E-02  1.156297773739E-02
  1.071429352146E-02  9.918523247196E-03  9.173113840673E-03  8.475578582016E-03
  7.823499712959E-03  7.214530699503E-03  6.646398139096E-03  6.116903307714E-03
  5.623923347713E-03  5.165412102230E-03  4.739400606228E-03  4.343997248033E-03
  3.977387618311E-03  3.637834065946E-03  3.323674982277E-03  3.033323836502E-03
  2.765267986028E-03  2.518067285942E-03  2.290352521812E-03  2.080823689712E-03
  1.888248146639E-03  1.711458653576E-03  1.549351332281E-03  1.400883555476E-03
  1.265071788672E-03  1.140989400223E-03  1.027764454593E-03  9.245775021431E-04
  8.306593771287E-04  7.452890140114E-04  6.677912907003E-04  5.975349059433E-04
  5.339302968217E-04  4.764276011625E-04  4.245146686861E-04  3.777151238441E-04
  3.355864825817E-04  2.977183246560E-04  2.637305226647E-04  2.332715285575E-04
  2.060167181127E-04  1.816667936391E-04  1.599462450023E-04  1.406018689510E-04
  1.234013466279E-04  1.081318790708E-04  9.459888044746E-05  8.262472869456E-05
  7.204757316471E-05  6.272019880215E-05  5.450894628004E-05  4.729268743145E-05
  4.096185519778E-05  3.541752720141E-05  3.057056192831E-05  2.634078638227E-05
  2.265623394967E-05  1.945243109410E-05  1.667173138707E-05  1.426269527674E-05
  1.217951390320E-05  1.038147518756E-05  8.832470355355E-06  7.500539001735E-06
  6.357450768435E-06  5.378321679871E-06  4.541263177577E-06  3.827061898374E-06
  3.218888260883E-06  2.702031956478E-06  2.263662483240E-06  1.892612913638E-06
  1.579185147247E-06  1.314974967440E-06  1.092715294288E-06  9.061361036755E-07
  7.498395635362E-07  6.191890211092E-07  5.102105590529E-07  4.195059223152E-07
  3.441757007752E-07  2.817517337016E-07  2.301377836982E-07  1.875576126225E-07
  1.525095797057E-07  1.237272866394E-07  1.001451624362E-07  8.086869727784E-08
  6.514881513696E-08  5.235975768310E-08  4.198005494478E-08  3.339436511988E-08
  2.664903398202E-08  2.121330307629E-08  1.684388369737E-08  1.334048602889E-08
  1.053864379744E-08  8.303657564786E-09  6.525496271461E-09  5.114517253729E-09
  3.997883306741E-09  3.116571645051E-09  2.422883997808E-09  1.878379743034E-09
  1.452165098173E-09  1.119481098240E-09  8.605415540078E-10  6.595795262049E-10
  5.040672028459E-10  3.840795402634E-10  2.917767290573E-10  2.209845689400E-10
  1.668552671373E-10  1.255940905249E-10  9.423977077073E-11  7.048864546845E-11
  5.255427058702E-11  3.905570806663E-11  2.892891870040E-11  2.135671089239E-11
  1.571354202010E-11  1.152216823207E-11  8.419714062694E-12  6.131205374018E-12
  4.448995021765E-12  3.216824891440E-12  2.317522920865E-12  1.663539834119E-12
  1.189696301549E-12  8.476444181361E-13  6.016538393940E-13  4.254176704103E-13
  2.996404293455E-13  2.102235203105E-13  1.469054498376E-13  1.022467860034E-13
  7.087543963940E-14  4.892773770024E-14  3.363616221552E-14  2.302650751338E-14
  1.569633171905E-14  1.065355581022E-14  7.199376888700E-15  4.843691233367E-15
  3.244264389747E-15  2.163171859875E-15  1.435744857678E-15  9.485301701884E-16
  6.237183875326E-16  4.081925301313E-16  2.658618089700E-16  1.723202206669E-16
  1.111426103326E-16  7.132854649153E-17  4.554687978465E-17  2.893610751293E-17
  1.828862710432E-17  1.149886037570E-17  7.191743233747E-18  4.473956288391E-18
  2.768213669031E-18  1.703450714113E-18  1.042444808636E-18  6.343679045390E-19
  3.838528026585E-19  2.309372604740E-19  1.381335339111E-19  8.213906067714E-20
  4.855289693694E-20  2.852753881885E-20  1.665964568580E-20  9.669136282118E-21
  5.576963907008E-21  3.196417982118E-21  1.820336914641E-21  1.029980047513E-21
  5.789766557108E-22  0.000000000000E+00  0.000000000000E+00  0.000000000000E+00
  0.000000000000E+00  0.000000000000E+00  0.000000000000E+00  0.000000000000E+00
  0.000000000000E+00  0.000000000000E+00  0.000000000000E+00  0.000000000000E+00
  0.000000000000E+00  0.000000000000E+00
</data>
</radfunc>
</valence-charge>
<pseudocore-charge matching-radius="0.438833197033"
 number-of-continuous-derivatives="4">
<annotation model-charge-form="Teter function with specified parameters" />
<radfunc>
<data npts="291">
  1.375932493064E+02  1.375747683722E+02  1.375177504963E+02  1.374233954512E+02
  1.372922635540E+02  1.371199344448E+02  1.369004601966E+02  1.366493591426E+02
  1.363672981442E+02  1.360387383380E+02  1.356688700421E+02  1.352674193406E+02
  1.347830367245E+02  1.342780762940E+02  1.337745798237E+02  1.331957947396E+02
  1.325308515035E+02  1.319020821302E+02  1.311969991936E+02  1.304068159608E+02
  1.295218615248E+02  1.287385662456E+02  1.278819628817E+02  1.269457521055E+02
  1.259232109775E+02  1.248071903143E+02  1.235901189674E+02  1.226062151951E+02
  1.215574792569E+02  1.204402870873E+02  1.192509119331E+02  1.179855386058E+02
  1.166402813357E+02  1.152112057108E+02  1.136943552181E+02  1.120857829305E+02
  1.103815889090E+02  1.085779638993E+02  1.073184889187E+02  1.060121478485E+02
  1.046579481652E+02  1.032549542825E+02  1.018022975267E+02  1.002991868794E+02
  9.874492050420E+01  9.713889805998E+01  9.548063380062E+01  9.376977044763E+01
  9.200609381116E+01  9.018954812088E+01  8.832025201207E+01  8.639851509404E+01
  8.442485500761E+01  8.240001485483E+01  8.032498085909E+01  7.820100008550E+01
  7.602959802079E+01  7.381259577956E+01  7.155212666858E+01  6.925065180470E+01
  6.691097444394E+01  6.453625264161E+01  6.213000982532E+01  5.969614282653E+01
  5.723892688269E+01  5.476301709294E+01  5.227344578680E+01  5.102521113126E+01
  4.977561525064E+01  4.852538919125E+01  4.727528525175E+01  4.602607627015E+01
  4.477855480866E+01  4.353353223267E+01  4.229183768030E+01  4.105431691950E+01
  3.982183108970E+01  3.859525532582E+01  3.737547726237E+01  3.616339541648E+01
  3.495991744874E+01  3.376595830164E+01  3.258243821617E+01  3.141028062752E+01
  3.025040994205E+01  2.910374919835E+01  2.797121761621E+01  2.685372803824E+01
  2.575218427020E+01  2.466747832676E+01  2.360048759108E+01  2.255207189749E+01
  2.152307054771E+01  2.051429927277E+01  1.952654715351E+01  1.856057351433E+01
  1.761710480570E+01  1.669683149277E+01  1.580040496801E+01  1.492843450764E+01
  1.408148429216E+01  1.326007051280E+01  1.246465858638E+01  1.169566050184E+01
  1.095343232254E+01  1.023827186873E+01  9.550416604887E+00  8.890041756732E+00
  8.257258682482E+00  7.652113522369E+00  7.074586149791E+00  6.524589446306E+00
  6.001968921289E+00  5.506502695307E+00  5.037901864166E+00  4.595811258082E+00
  4.179810607596E+00  3.789416124633E+00  3.424082503540E+00  3.083205343031E+00
  2.766123985758E+00  2.472124767711E+00  2.200444664904E+00  1.950275319895E+00
  1.720767425566E+00  1.511035438506E+00  1.320162589147E+00  1.147206150805E+00
  9.912029249045E-01  8.511748950481E-01  7.261349984533E-01  6.150929595004E-01
  5.170611270523E-01  4.310602547622E-01  3.561251619685E-01  2.913102120395E-01
  2.356945452855E-01  1.883870048537E-01  1.485306964328E-01  1.153071261462E-01
  8.793986572343E-02  6.569769988816E-02  4.789721785596E-02  3.390481881005E-02
  2.313811012346E-02  1.506668677628E-02  9.212290707760E-03  5.148359543263E-03
  2.498985013504E-03  9.373121853364E-04  1.834210751947E-04  1.742034238579E-06
  1.980651896318E-04  6.162119166654E-04  1.134442534914E-03  1.661678928287E-03
  2.133623381561E-03  2.508855451266E-03  2.764987052080E-03  2.894952114409E-03
  2.903501202574E-03  2.803963503581E-03  2.615328812337E-03  2.359690838073E-03
  2.060080699914E-03  1.738706291598E-03  1.415599750980E-03  1.107662075442E-03
  8.280814971026E-04  5.860910759017E-04  3.870215501340E-04  2.325982043886E-04
  1.214256869026E-04  4.960253413040E-05  1.140771384809E-05  4.713941817727E-09
  8.114373533150E-06  2.861542921263E-05  5.504116041082E-05  8.195099171118E-05
  1.051668042700E-04  1.218743512143E-04  1.305999043497E-04  1.310804828620E-04
  1.240522345487E-04  1.109854062808E-04  9.379567773496E-05  7.456045957680E-05
  5.526529010676E-05  3.760010309892E-05  2.281843849604E-05  1.166528963194E-05
  4.371938836952E-06  7.095249741042E-07  8.782542272918E-08  1.682288952103E-06
  4.570996225822E-06  7.863995214343E-06  1.081016845725E-05  1.287103091478E-05
  1.375605346924E-05  1.341957750728E-05  1.202443034467E-05  9.881338843278E-06
  7.375691318507E-06  4.893855884339E-06  2.760122671647E-06  1.192651830619E-06
  2.830550544071E-07  4.317358768774E-11  0.000000000000E+00  0.000000000000E+00
  0.000000000000E+00  0.000000000000E+00  0.000000000000E+00  0.000000000000E+00
  0.000000000000E+00  0.000000000000E+00  0.000000000000E+00  0.000000000000E+00
  0.000000000000E+00  0.000000000000E+00  0.000000000000E+00  0.000000000000E+00
  0.000000000000E+00  0.000000000000E+00  0.000000000000E+00  0.000000000000E+00
  0.000000000000E+00  0.000000000000E+00  0.000000000000E+00  0.000000000000E+00
  0.000000000000E+00  0.000000000000E+00  0.000000000000E+00  0.000000000000E+00
  0.000000000000E+00  0.000000000000E+00  0.000000000000E+00  0.000000000000E+00
  0.000000000000E+00  0.000000000000E+00  0.000000000000E+00  0.000000000000E+00
  0.000000000000E+00  0.000000000000E+00  0.000000000000E+00  0.000000000000E+00
  0.000000000000E+00  0.000000000000E+00  0.000000000000E+00  0.000000000000E+00
  0.000000000000E+00  0.000000000000E+00  0.000000000000E+00  0.000000000000E+00
  0.000000000000E+00  0.000000000000E+00  0.000000000000E+00  0.000000000000E+00
  0.000000000000E+00  0.000000000000E+00  0.000000000000E+00  0.000000000000E+00
  0.000000000000E+00  0.000000000000E+00  0.000000000000E+00  0.000000000000E+00
  0.000000000000E+00  0.000000000000E+00  0.000000000000E+00  0.000000000000E+00
  0.000000000000E+00  0.000000000000E+00  0.000000000000E+00  0.000000000000E+00
  0.000000000000E+00  0.000000000000E+00  0.000000000000E+00  0.000000000000E+00
  0.000000000000E+00  0.000000000000E+00  0.000000000000E+00  0.000000000000E+00
  0.000000000000E+00  0.000000000000E+00  0.000000000000E+00  0.000000000000E+00
  0.000000000000E+00  0.000000000000E+00  0.000000000000E+00
</data>
</radfunc>
</pseudocore-charge>
<semilocal-potentials set="scalar_relativistic">
<slps n="3" l="s" rc="1.11270348721">
<radfunc>
<data npts="291">
  1.087657407820E+01  1.086254157067E+01  1.081929542210E+01  1.074787679843E+01
  1.064892261784E+01  1.051941041847E+01  1.035533232665E+01  1.016878956000E+01
  9.960733017474E+00  9.720338389198E+00  9.452212823914E+00  9.164138585100E+00
  8.820571090836E+00  8.467003134729E+00  8.119043136353E+00  7.724594283866E+00
  7.278586828781E+00  6.863723219222E+00  6.406269746558E+00  5.903106583147E+00
  5.351182096807E+00  4.872577655040E+00  4.359529527113E+00  3.810800792624E+00
  3.225333311513E+00  2.602291379497E+00  1.941107953019E+00  1.420026048488E+00
  8.773678862808E-01  3.132869276813E-01 -2.719257736036E-01 -8.778313465245E-01
 -1.503833782991E+00 -2.149171783911E+00 -2.812912028815E+00 -3.493944114624E+00
 -4.190977386305E+00 -4.902539848450E+00 -5.384178022424E+00 -5.871009552178E+00
 -6.362466799254E+00 -6.857948798398E+00 -7.356822375425E+00 -7.858423458207E+00
 -8.362058570673E+00 -8.867006496908E+00 -9.372520099895E+00 -9.877828277038E+00
 -1.038213803256E+01 -1.088463664515E+01 -1.138449390778E+01 -1.188086441610E+01
 -1.237288988109E+01 -1.285970144203E+01 -1.334042195690E+01 -1.381416824805E+01
 -1.428005328380E+01 -1.473718827843E+01 -1.518468469668E+01 -1.562165615247E+01
 -1.604722019568E+01 -1.646049998579E+01 -1.686062585614E+01 -1.724673677834E+01
 -1.761798174184E+01 -1.797352106994E+01 -1.831252769942E+01 -1.847557655738E+01
 -1.863418845642E+01 -1.878826413493E+01 -1.893770536704E+01 -1.908241500863E+01
 -1.922229704551E+01 -1.935725664435E+01 -1.948720020682E+01 -1.961203542707E+01
 -1.973167135328E+01 -1.984601845341E+01 -1.995498868570E+01 -2.005849557421E+01
 -2.015645428981E+01 -2.024878173698E+01 -2.033539664671E+01 -2.041621967585E+01
 -2.049117351327E+01 -2.056018299297E+01 -2.062317521461E+01 -2.068007967156E+01
 -2.073082838686E+01 -2.077535605724E+01 -2.081360020557E+01 -2.084550134190E+01
 -2.087100313350E+01 -2.089005258416E+01 -2.090260022304E+01 -2.090860030357E+01
 -2.090801101274E+01 -2.090079469122E+01 -2.088691806496E+01 -2.086635248866E+01
 -2.083907420180E+01 -2.080506459792E+01 -2.076431050768E+01 -2.071680449664E+01
 -2.066254517828E+01 -2.060153754313E+01 -2.053379330481E+01 -2.045933126365E+01
 -2.037817768877E+01 -2.029036671926E+01 -2.019594078545E+01 -2.009495105070E+01
 -1.998745787487E+01 -1.987353129998E+01 -1.975325155900E+01 -1.962670960867E+01
 -1.949400768729E+01 -1.935525989861E+01 -1.921059282288E+01 -1.906014615682E+01
 -1.890407338360E+01 -1.874254247527E+01 -1.857573662942E+01 -1.840385504272E+01
 -1.822711372424E+01 -1.804574635176E+01 -1.786000517453E+01 -1.767016196664E+01
 -1.747650903486E+01 -1.727936028521E+01 -1.707905235227E+01 -1.687594579459E+01
 -1.667042635846E+01 -1.646290631062E+01 -1.625382583769E+01 -1.604365450624E+01
 -1.583289277188E+01 -1.562207351867E+01 -1.541176360050E+01 -1.520256534422E+01
 -1.499511795901E+01 -1.479009877862E+01 -1.458822424092E+01 -1.439025048420E+01
 -1.419697341063E+01 -1.400922803564E+01 -1.382788690706E+01 -1.365385683156E+01
 -1.348808002645E+01 -1.332784759400E+01 -1.316924742767E+01 -1.301247867438E+01