<?xml version="1.0" encoding="UTF-8" ?>
<psml version="1.1" energy_unit="hartree" length_unit="bohr"
 uuid="6ba89c40-44bd-11e8-79d5-45bb97f22497"
 xmlns="http://esl.cecam.org/PSML/ns/1.1">
<provenance creator="ONCVPSP-3.3.0+psml-3.3.0-73 (fully-relativistic)"
 date="2018-04-20">
<annotation action="semilocal-pseudopotential-generation"
 action-cont="projectors-generation" />
<input-file name="oncvpsp-input">
<![CDATA[# atsym z nc nv iexc psfile
Mn 25 3 4 4 both
# n l f
1 0 2.0
2 0 2.0
2 1 6.0
3 0 2.0
3 1 6.0
3 2 5.0
4 0 2.0
# lmax
2
# l rc ep ncon nbas qcut
0 1.4 0.0 4 7 8.2
1 1.2 0.0 4 7 10.4
2 1.6 0.0 4 7 9.8
# lloc lpopt rc5 dvloc0
4 5 1.2 0.0
# l nproj debl
0 2 1.0
1 2 1.0
2 2 1.0
# icmod fcfact
3 4 1.75
# epsh1 epsh2 depsh
-50.0 12.0 0.02
# rlmax drl
6.0 0.01
 0
]]>
</input-file>
</provenance>
<pseudo-atom-spec atomic-label="Mn" atomic-number="25" z-pseudo="15"
 flavor="Hamann&apos;s oncvpsp" relativity="dirac" spin-dft="no"
 core-corrections="yes">
<annotation pseudo-energy="-103.540031888" />
<exchange-correlation>
<annotation oncvpsp-xc-code="4" oncvpsp-xc-type="GGA -- Perdew-Burke-Ernzerhof" />
<libxc-info number-of-functionals="2">
<functional name="Perdew, Burke &amp; Ernzerhof (GGA)" type="exchange" id="101" />
<functional name="Perdew, Burke &amp; Ernzerhof (GGA)" type="correlation"
 id="130" />
</libxc-info>
</exchange-correlation>
<valence-configuration total-valence-charge="15">
<shell n="3" l="s" occupation="2" />
<shell n="3" l="p" occupation="6" />
<shell n="3" l="d" occupation="5" />
<shell n="4" l="s" occupation="2" />
</valence-configuration>
</pseudo-atom-spec>
<grid npts="458">
<annotation type="sampled from oncvpsp log grid"
 recipe="r(i:1..N) = r1*exp(a*(i-1)) + r=0; resampled"
 recipe-cont="r1: scale; a: step" scale="0.200000000000E-04"
 step="0.119285708653E-01" delta="0.500000000000E-02" rmax="44.3769870573" />
<grid-data>
  0.000000000000E+00  5.007342349535E-03  1.012179466165E-02  1.518430601833E-02
  2.021749050673E-02  2.536045174936E-02  3.069341316587E-02  3.584196802331E-02
  4.086744488362E-02  4.604501413403E-02  5.126337829839E-02  5.639639233938E-02
  6.204337627505E-02  6.744643678951E-02  7.245061657011E-02  7.782608083168E-02
  8.360037697896E-02  8.873823744356E-02  9.419185737129E-02  9.998064251273E-02
  1.061251912451E-01  1.113116283280E-01  1.167515314288E-01  1.224572876681E-01
  1.284418895367E-01  1.347189644807E-01  1.413028059321E-01  1.464509939291E-01
  1.517867496073E-01  1.573169067565E-01  1.630485481470E-01  1.689890146010E-01
  1.751459143940E-01  1.815271329993E-01  1.881408431876E-01  1.949955154940E-01
  2.020999290667E-01  2.094631829112E-01  2.145204619994E-01  2.196998440339E-01
  2.250042770683E-01  2.304367803338E-01  2.360004459582E-01  2.416984407254E-01
  2.475340078783E-01  2.535104689645E-01  2.596312257271E-01  2.658997620411E-01
  2.723196458958E-01  2.788945314263E-01  2.856281609931E-01  2.925243673121E-01
  2.995870756365E-01  3.068203059907E-01  3.142281754585E-01  3.218149005268E-01
  3.295847994851E-01  3.375422948838E-01  3.456919160515E-01  3.540383016727E-01
  3.625862024283E-01  3.713404836997E-01  3.803061283381E-01  3.894882395007E-01
  3.988920435552E-01  4.085228930548E-01  4.183862697847E-01  4.234069050222E-01
  4.284877878824E-01  4.336296413370E-01  4.388331970331E-01  4.440991953975E-01
  4.494283857422E-01  4.548215263711E-01  4.602793846876E-01  4.658027373038E-01
  4.713923701515E-01  4.770490785933E-01  4.827736675364E-01  4.885669515469E-01
  4.944297549654E-01  5.003629120250E-01  5.063672669693E-01  5.124436741729E-01
  5.185929982630E-01  5.248161142422E-01  5.311139076131E-01  5.374872745044E-01
  5.439371217985E-01  5.504643672601E-01  5.570699396672E-01  5.637547789432E-01
  5.705198362905E-01  5.773660743260E-01  5.842944672179E-01  5.913060008245E-01
  5.984016728344E-01  6.055824929084E-01  6.128494828233E-01  6.202036766172E-01
  6.276461207366E-01  6.351778741855E-01  6.428000086757E-01  6.505136087798E-01
  6.583197720852E-01  6.662196093502E-01  6.742142446624E-01  6.823048155983E-01
  6.904924733855E-01  6.987783830661E-01  7.071637236629E-01  7.156496883469E-01
  7.242374846070E-01  7.329283344223E-01  7.417234744354E-01  7.506241561286E-01
  7.596316460022E-01  7.687472257542E-01  7.779721924632E-01  7.873078587728E-01
  7.967555530781E-01  8.063166197150E-01  8.159924191516E-01  8.257843281814E-01
  8.356937401196E-01  8.457220650010E-01  8.558707297810E-01  8.661411785384E-01
  8.765348726809E-01  8.870532911530E-01  8.976979306469E-01  9.084703058146E-01
  9.193719494844E-01  9.304044128782E-01  9.415692658328E-01  9.528680970228E-01
  9.643025141870E-01  9.758741443573E-01  9.875846340896E-01  9.994356496986E-01
  1.011428877495E+00  1.023566024025E+00  1.035848816313E+00  1.048279002109E+00
  1.060858350134E+00  1.073588650336E+00  1.086471714140E+00  1.099509374710E+00
  1.112703487206E+00  1.126055929053E+00  1.139568600201E+00  1.153243423404E+00
  1.167082344485E+00  1.181087332618E+00  1.195260380610E+00  1.209603505177E+00
  1.224118747239E+00  1.238808172206E+00  1.253673870273E+00  1.268717956716E+00
  1.283942572196E+00  1.299349883063E+00  1.314942081660E+00  1.330721386639E+00
  1.346690043279E+00  1.362850323798E+00  1.379204527684E+00  1.395754982016E+00
  1.412504041800E+00  1.429454090302E+00  1.446607539386E+00  1.463966829858E+00
  1.481534431817E+00  1.499312844998E+00  1.517304599138E+00  1.535512254328E+00
  1.553938401380E+00  1.572585662197E+00  1.591456690143E+00  1.610554170425E+00
  1.629880820470E+00  1.649439390315E+00  1.669232662999E+00  1.689263454955E+00
  1.709534616415E+00  1.730049031812E+00  1.750809620193E+00  1.771819335636E+00
  1.793081167663E+00  1.814598141675E+00  1.836373319375E+00  1.858409799208E+00
  1.880710716798E+00  1.903279245400E+00  1.926118596345E+00  1.949232019501E+00
  1.972622803735E+00  1.996294277380E+00  2.020249808708E+00  2.044492806413E+00
  2.069026720090E+00  2.093855040731E+00  2.118981301219E+00  2.144409076834E+00
  2.170141985756E+00  2.196183689585E+00  2.222537893860E+00  2.249208348587E+00
  2.276198848770E+00  2.303513234955E+00  2.331155393774E+00  2.359129258500E+00
  2.387438809602E+00  2.416088075317E+00  2.445081132221E+00  2.474422105807E+00
  2.504115171077E+00  2.534164553130E+00  2.564574527767E+00  2.595349422101E+00
  2.626493615166E+00  2.658011538548E+00  2.689907677010E+00  2.722186569135E+00
  2.754852807964E+00  2.787911041660E+00  2.821365974160E+00  2.855222365850E+00
  2.889485034240E+00  2.924158854651E+00  2.959248760906E+00  2.994759746037E+00
  3.030696862990E+00  3.067065225346E+00  3.103870008050E+00  3.141116448146E+00
  3.178809845524E+00  3.216955563670E+00  3.255559030434E+00  3.294625738800E+00
  3.334161247665E+00  3.374171182637E+00  3.414661236829E+00  3.455637171671E+00
  3.497104817731E+00  3.539070075544E+00  3.581538916450E+00  3.624517383448E+00
  3.668011592049E+00  3.712027731154E+00  3.756572063927E+00  3.801650928694E+00
  3.847270739839E+00  3.893437988717E+00  3.940159244582E+00  3.987441155516E+00
  4.035290449383E+00  4.083713934775E+00  4.132718501993E+00  4.182311124016E+00
  4.232498857505E+00  4.283288843795E+00  4.334688309920E+00  4.386704569639E+00
  4.439345024475E+00  4.492617164769E+00  4.546528570746E+00  4.601086913595E+00
  4.656299956558E+00  4.712175556037E+00  4.768721662709E+00  4.825946322662E+00
  4.883857678534E+00  4.942463970676E+00  5.001773538324E+00  5.061794820784E+00
  5.122536358633E+00  5.184006794937E+00  5.246214876476E+00  5.309169454994E+00
  5.372879488454E+00  5.437354042315E+00  5.502602290823E+00  5.568633518313E+00
  5.635457120533E+00  5.703082605979E+00  5.771519597251E+00  5.840777832418E+00
  5.910867166407E+00  5.981797572404E+00  6.053579143273E+00  6.126222092992E+00
  6.199736758108E+00  6.274133599205E+00  6.349423202396E+00  6.425616280824E+00
  6.502723676194E+00  6.580756360309E+00  6.659725436632E+00  6.739642141872E+00
  6.820517847574E+00  6.902364061745E+00  6.985192430486E+00  7.069014739652E+00
  7.153842916528E+00  7.239689031526E+00  7.326565299904E+00  7.414484083503E+00
  7.503457892505E+00  7.593499387215E+00  7.684621379862E+00  7.776836836420E+00
  7.870158878457E+00  7.964600784999E+00  8.060175994419E+00  8.156898106352E+00
  8.254780883628E+00  8.353838254232E+00  8.454084313282E+00  8.555533325042E+00
  8.658199724942E+00  8.762098121642E+00  8.867243299101E+00  8.973650218691E+00
  9.081334021315E+00  9.190310029571E+00  9.300593749925E+00  9.412200874925E+00
  9.525147285424E+00  9.639449052849E+00  9.755122441483E+00  9.872183910781E+00
  9.990650117710E+00  1.011053791912E+01  1.023186437415E+01  1.035464674664E+01
  1.047890250760E+01  1.060464933769E+01  1.073190512975E+01  1.086068799130E+01
  1.099101624720E+01  1.112290844216E+01  1.125638334347E+01  1.139145994359E+01
  1.152815746291E+01  1.166649535247E+01  1.180649329670E+01  1.194817121626E+01
  1.209154927085E+01  1.223664786211E+01  1.238348763645E+01  1.253208948809E+01
  1.268247456194E+01  1.283466425669E+01  1.298868022777E+01  1.314454439050E+01
  1.330227892319E+01  1.346190627027E+01  1.362344914551E+01  1.378693053526E+01
  1.395237370168E+01  1.411980218610E+01  1.428923981233E+01  1.446071069008E+01
  1.463423921836E+01  1.480985008898E+01  1.498756829005E+01  1.516741910953E+01
  1.534942813884E+01  1.553362127651E+01  1.572002473183E+01  1.590866502861E+01
  1.609956900895E+01  1.629276383706E+01  1.648827700311E+01  1.668613632714E+01
  1.688636996307E+01  1.708900640263E+01  1.729407447946E+01  1.750160337321E+01
  1.771162261369E+01  1.792416208505E+01  1.813925203007E+01  1.835692305443E+01
  1.857720613109E+01  1.880013260466E+01  1.902573419592E+01  1.925404300627E+01
  1.948509152234E+01  1.971891262061E+01  1.995553957206E+01  2.019500604692E+01
  2.043734611949E+01  2.068259427292E+01  2.093078540419E+01  2.118195482905E+01
  2.143613828699E+01  2.169337194644E+01  2.195369240979E+01  2.221713671871E+01
  2.248374235934E+01  2.275354726765E+01  2.302658983486E+01  2.330290891288E+01
  2.358254381983E+01  2.386553434567E+01  2.415192075782E+01  2.444174380691E+01
  2.473504473260E+01  2.503186526939E+01  2.533224765262E+01  2.563623462445E+01
  2.594386943995E+01  2.625519587322E+01  2.657025822370E+01  2.688910132239E+01
  2.721177053826E+01  2.753831178472E+01  2.786877152613E+01  2.820319678445E+01
  2.854163514586E+01  2.888413476761E+01  2.923074438482E+01  2.958151331744E+01
  2.993649147725E+01  3.029572937497E+01  3.065927812747E+01  3.102718946500E+01
  3.139951573858E+01  3.177630992745E+01  3.215762564658E+01  3.254351715434E+01
  3.293403936019E+01  3.332924783251E+01  3.372919880650E+01  3.413394919218E+01
  3.454355658248E+01  3.495807926147E+01  3.537757621261E+01  3.580210712716E+01
  3.623173241269E+01  3.666651320164E+01  3.710651136006E+01  3.755178949638E+01
  3.800241097034E+01  3.845843990198E+01  3.891994118081E+01  3.938698047498E+01
  3.985962424068E+01  4.033793973156E+01  4.082199500834E+01  4.131185894844E+01
  4.180760125582E+01  4.230929247089E+01  4.281700398054E+01  4.333080802831E+01
  4.385077772465E+01  4.437698705735E+01
</grid-data>
</grid>
<valence-charge total-charge="15" is-unscreening-charge="yes"
 rescaled-to-z-pseudo="no">
<radfunc>
<data npts="458">
  1.006631677589E+01  1.007100725053E+01  1.008547859923E+01  1.010942695003E+01
  1.014271110044E+01  1.018645450589E+01  1.024216910799E+01  1.030591776845E+01
  1.037753318242E+01  1.046096340414E+01  1.055489382861E+01  1.065685729163E+01
  1.077990087340E+01  1.090818970381E+01  1.103612371891E+01  1.118320739727E+01
  1.135220934482E+01  1.151203774777E+01  1.169128486713E+01  1.189218756561E+01
  1.211720614356E+01  1.231638798237E+01  1.253421781711E+01  1.277229133020E+01
  1.303230733679E+01  1.331606640677E+01  1.362546697960E+01  1.387553815279E+01
  1.414201921697E+01  1.442580106162E+01  1.472779146775E+01  1.504890912223E+01
  1.539007617746E+01  1.575220912424E+01  1.613620771857E+01  1.654294167508E+01
  1.697323481134E+01  1.742784630005E+01  1.774476724416E+01  1.807297025093E+01
  1.841260210378E+01  1.876377946947E+01  1.912658430238E+01  1.950105882282E+01
  1.988720004783E+01  2.028495385478E+01  2.069420856086E+01  2.111478800537E+01
  2.154644412649E+01  2.198884903078E+01  2.244158656097E+01  2.290414337773E+01
  2.337589958216E+01  2.385611892013E+01  2.434393862538E+01  2.483835897787E+01
  2.533823267545E+01  2.584225414268E+01  2.634894892838E+01  2.685666337605E+01
  2.736355478598E+01  2.786758232626E+01  2.836649899116E+01  2.885784494844E+01
  2.933894266208E+01  2.980689422201E+01  3.025858135612E+01  3.047729176393E+01
  3.069066864085E+01  3.089826226927E+01  3.109961046182E+01  3.129423902480E+01
  3.148166230335E+01  3.166138381276E+01  3.183289696070E+01  3.199568586472E+01
  3.214922626934E+01  3.229298656680E+01  3.242642892531E+01  3.254901052812E+01
  3.266018492657E+01  3.275940350957E+01  3.284611709143E+01  3.291977761945E+01
  3.297984000174E+01  3.302576405506E+01  3.305701657140E+01  3.307307350122E+01
  3.307342224986E+01  3.305756408276E+01  3.302501663348E+01  3.297531650753E+01
  3.290802197306E+01  3.282271572839E+01  3.271900773448E+01  3.259653809880E+01
  3.245497999535E+01  3.229404260408E+01  3.211347405077E+01  3.191306432709E+01
  3.169264816885E+01  3.145210786848E+01  3.119137599677E+01  3.091043800708E+01
  3.060933469427E+01  3.028816447938E+01  2.994708549047E+01  2.958631740926E+01
  2.920614305338E+01  2.880690966361E+01  2.838902986663E+01  2.795298228414E+01
  2.749931176118E+01  2.702862918768E+01  2.654161089026E+01  2.603899757377E+01
  2.552159279548E+01  2.499026095887E+01  2.444592481838E+01  2.388956249103E+01
  2.332220397667E+01  2.274492719383E+01  2.215885354457E+01  2.156514302781E+01
  2.096498892712E+01  2.035961210567E+01  1.975025494725E+01  1.913817498883E+01
  1.852463829605E+01  1.791091263860E+01  1.729826052749E+01  1.668793218051E+01
  1.608115848557E+01  1.547914403413E+01  1.488306029819E+01  1.429403902464E+01
  1.371316591968E+01  1.314147469351E+01  1.257994153201E+01  1.202948005709E+01
  1.149093683110E+01  1.096508745357E+01  1.045263328993E+01  9.954198862828E+00
  9.470329926836E+00  9.001492236873E+00  8.548071010481E+00  8.110371073578E+00
  7.688617669406E+00  7.282957901072E+00  6.893462769597E+00  6.520129762133E+00
  6.162885938978E+00  5.821591463568E+00  5.496043516680E+00  5.185980534872E+00
  4.891087255528E+00  4.611002242654E+00  4.345327280120E+00  4.093632147655E+00
  3.855459327634E+00  3.630328712915E+00  3.417742222033E+00  3.217188286239E+00
  3.028146177403E+00  2.850090150292E+00  2.682493376784E+00  2.524831653317E+00
  2.376586866005E+00  2.237250378600E+00  2.106326804029E+00  1.983337719035E+00
  1.867823455454E+00  1.759344683531E+00  1.657483624379E+00  1.561844981618E+00
  1.472056562193E+00  1.387769589132E+00  1.308658704801E+00  1.234421665466E+00
  1.164777963045E+00  1.099464170284E+00  1.038227547872E+00  9.808260860288E-01
  9.270284070901E-01  8.766136796185E-01  8.293714928851E-01  7.851016958399E-01
  7.436142045662E-01  7.047287820849E-01  6.682747942250E-01  6.340909451120E-01
  6.020249956432E-01  5.719334681233E-01  5.436813400266E-01  5.171417296286E-01
  4.921955760228E-01  4.687313158067E-01  4.466445584807E-01  4.258377623791E-01
  4.062199127226E-01  3.877062031747E-01  3.702177220869E-01  3.536811444404E-01
  3.380284303383E-01  3.231965307608E-01  3.091271011850E-01  2.957662235673E-01
  2.830641371043E-01  2.709749781153E-01  2.594565293260E-01  2.484699787760E-01
  2.379796885203E-01  2.279529732432E-01  2.183598888556E-01  2.091730310977E-01
  2.003673441236E-01  1.919199389982E-01  1.838099219933E-01  1.760182325329E-01
  1.685274905955E-01  1.613218533520E-01  1.543868807866E-01  1.477094100228E-01
  1.412774380569E-01  1.350800125833E-01  1.291071305834E-01  1.233496443421E-01
  1.177991745477E-01  1.124480301311E-01  1.072891344991E-01  1.023159578176E-01
  9.752245500980E-02  9.290300913463E-02  8.845237982528E-02  8.416565647178E-02
  8.003821584525E-02  7.606568387155E-02  7.224390127436E-02  6.856889282034E-02
  6.503683991203E-02  6.164405628737E-02  5.838696659771E-02  5.526208764995E-02
  5.226601211047E-02  4.939539448192E-02  4.664693917517E-02  4.401739051042E-02
  4.150352449153E-02  3.910214220754E-02  3.681006472359E-02  3.462412933102E-02
  3.254118703312E-02  3.055810114732E-02  2.867174691771E-02  2.687901201036E-02
  2.517679780768E-02  2.356202138594E-02  2.203161807919E-02  2.058254453237E-02
  1.921178214990E-02  1.791634084918E-02  1.669326303232E-02  1.553962769403E-02
  1.445255458830E-02  1.342920838221E-02  1.246680273125E-02  1.156260421692E-02
  1.071393609434E-02  9.918181804656E-03  9.172788214253E-03  8.475268549838E-03
  7.823205005709E-03  7.214251006103E-03  6.646133112075E-03  6.116652568273E-03
  5.623686490479E-03  5.165188699698E-03  4.739190212907E-03  4.343799404287E-03
  3.977201853909E-03  3.637659903328E-03  3.323511939547E-03  3.033171430153E-03
  2.765125733416E-03  2.517934707514E-03  2.290229143107E-03  2.080709043140E-03
  1.888141773055E-03  1.711360103661E-03  1.549260167734E-03  1.400799350041E-03
  1.264994129003E-03  1.140917886602E-03  1.027698701507E-03  9.245171387366E-04
  8.306040475336E-04  7.452383775736E-04  6.677450221040E-04  5.974926952450E-04
  5.338918494010E-04  4.763926375981E-04  4.244829245644E-04  3.776863495077E-04
  3.355604428234E-04  2.976947983666E-04  2.637093024392E-04  2.332524202670E-04
  2.059995404460E-04  1.816513776207E-04  1.599324334912E-04  1.405895161252E-04
  1.233903174586E-04  1.081220487916E-04  9.459013402038E-05  8.261696027891E-05
  7.204068558976E-05  6.271410304783E-05  5.450356096775E-05  4.728793832736E-05
  4.095767473057E-05  3.541385399611E-05  3.056734035762E-05  2.633796613654E-05
  2.265376962629E-05  1.945028180698E-05  1.666986039664E-05  1.426106964063E-05
  1.217810414752E-05  1.038025499878E-05  8.831416292298E-06  7.499630227399E-06
  6.356668800985E-06  5.377650162191E-06  4.540687664668E-06  3.826569661809E-06
  3.218468109485E-06  2.701674072383E-06  2.263358272443E-06  1.892354870153E-06
  1.578966729993E-06  1.314790488975E-06  1.092559820537E-06  9.060053638175E-07
  7.497298692486E-07  6.190971943973E-07  5.101338679275E-07  4.194420236239E-07
  3.441225895290E-07  2.817076982812E-07  2.301013663656E-07  1.875275748014E-07
  1.524848715474E-07  1.237070203891E-07  1.001285892215E-07  8.085518692931E-08
  6.513783867917E-08  5.235087207224E-08  4.197289045288E-08  3.357046003497E-08
  2.678416143102E-08  2.131669444414E-08  1.692276088206E-08  1.340048264925E-08
  1.058414172101E-08  8.338055002665E-09  6.551420731412E-09  5.133994192504E-09
  4.012469297571E-09  3.127459207655E-09  2.430983867677E-09  1.884385238226E-09
  1.456602301796E-09  1.119234227658E-09  8.603492577261E-10  6.594301763859E-10
  5.039515499121E-10  3.839902482947E-10  2.917079973128E-10  2.209318244895E-10
  1.668149160163E-10  1.255633169016E-10  9.421637537455E-11  7.047091601953E-11
  5.254087822358E-11  3.904562482347E-11  2.892135197595E-11  2.135105157996E-11
  1.570932359177E-11  1.151903457204E-11  8.417394265631E-12  6.129494068703E-12
  4.447737062335E-12  3.215903488903E-12  2.316850474627E-12  1.663050874888E-12
  1.189342079227E-12  8.473887665882E-13  6.014700286300E-13  4.252860194590E-13
  2.995465028981E-13  2.101567716344E-13  1.468582035099E-13  1.022134783818E-13
  7.085205403457E-14  4.891138603412E-14  3.362477644130E-14  2.301861293859E-14
  1.569088118904E-14  1.064980892431E-14  7.196812395243E-15  4.841943764341E-15
  3.243078972514E-15  2.162371355604E-15  1.435206757342E-15  9.481701338815E-16
  6.234786209235E-16  4.080336146828E-16  2.657569866194E-16  1.722514145462E-16
  1.110976675055E-16  7.129933671330E-17  4.552799096650E-17  2.892395506510E-17
  1.828084891436E-17  1.149390789990E-17  7.188606567968E-18  4.471980280121E-18
  2.766975568056E-18  1.702679203330E-18  1.041966709398E-18  6.340732891924E-19
  3.836722829022E-19  2.308272848050E-19  1.380669236596E-19  8.209895296933E-20
  4.852889057917E-20  2.851325628214E-20  1.665120002438E-20  9.664172880250E-21
  5.574065158891E-21  3.194735717996E-21  1.819366857084E-21  1.029424288055E-21
  5.786603342545E-22  0.000000000000E+00  0.000000000000E+00  0.000000000000E+00
  0.000000000000E+00  0.000000000000E+00  0.000000000000E+00  0.000000000000E+00
  0.000000000000E+00  0.000000000000E+00  0.000000000000E+00  0.000000000000E+00
  0.000000000000E+00  0.000000000000E+00
</data>
</radfunc>
</valence-charge>
<pseudocore-charge matching-radius="0.444099195397"
 number-of-continuous-derivatives="4">
<annotation model-charge-form="Teter function with specified parameters" />
<radfunc>
<data npts="291">
  1.274686753136E+02  1.274519578693E+02  1.274003804474E+02  1.273150274062E+02
  1.271964040835E+02  1.270405095158E+02  1.268419596440E+02  1.266147896011E+02
  1.263595992346E+02  1.260623250830E+02  1.257276568815E+02  1.253643891343E+02
  1.249260456096E+02  1.244690430620E+02  1.240133276139E+02  1.234894214631E+02
  1.228874643014E+02  1.223181930242E+02  1.216797580248E+02  1.209641765782E+02
  1.201626573721E+02  1.194531115494E+02  1.186770503056E+02  1.178287349580E+02
  1.169020358191E+02  1.158904283918E+02  1.147869955841E+02  1.138947831788E+02
  1.129436053139E+02  1.119301387231E+02  1.108509612761E+02  1.097025641642E+02
  1.084813672794E+02  1.071837382270E+02  1.058060154365E+02  1.043445358714E+02
  1.027956678543E+02  1.011558495447E+02  1.000104007939E+02  9.882201134640E+01
  9.758973858541E+01  9.631268828319E+01  9.499002349215E+01  9.362097413991E+01
  9.220484734349E+01  9.074103845177E+01  8.922904281798E+01  8.766846829562E+01
  8.605904844058E+01  8.440065639038E+01  8.269331937786E+01  8.093723382022E+01
  7.913278090699E+01  7.728054258961E+01  7.538131785344E+01  7.343613912767E+01
  7.144628866179E+01  6.941331466779E+01  6.733904699617E+01  6.522561208035E+01
  6.307544685026E+01  6.089131128019E+01  5.867629920116E+01  5.643384697327E+01
  5.416773958141E+01  5.188211368791E+01  4.958145715163E+01  4.842698985678E+01
  4.727060450486E+01  4.611295809136E+01  4.495472786978E+01  4.379661078209E+01
  4.263932279828E+01  4.148359816119E+01  4.033018853320E+01  3.917986204166E+01
  3.803340222006E+01  3.689160684231E+01  3.575528664795E+01  3.462526395638E+01
  3.350237116879E+01  3.238744915705E+01  3.128134553913E+01  3.018491284158E+01
  2.909900655012E+01  2.802448305019E+01  2.696219746009E+01  2.591300136032E+01
  2.487774042348E+01  2.385725195024E+01  2.285236231785E+01  2.186388434866E+01
  2.089261460749E+01  1.993933063743E+01  1.900478814527E+01  1.808971814864E+01
  1.719482409827E+01  1.632077898999E+01  1.546822248218E+01  1.463775803569E+01
  1.382995009412E+01  1.304532132368E+01  1.228434993252E+01  1.154746709051E+01
  1.083505447108E+01  1.014744193723E+01  9.484905394611E+00  8.847664834249E+00
  8.235882588180E+00  7.649661820503E+00  7.089045276298E+00  6.554014309946E+00
  6.044488213474E+00  5.560323864194E+00  5.101315709311E+00  4.667196103170E+00
  4.257636010577E+00  3.872246086912E+00  3.510578142852E+00  3.172126998171E+00
  2.856332725459E+00  2.562583280759E+00  2.290217513858E+00  2.038528546642E+00
  1.806767503326E+00  1.594147571669E+00  1.399848369519E+00  1.223020586296E+00
  1.062790864319E+00  9.182668803992E-01  7.885425838764E-01  6.727035433664E-01
  5.698323510601E-01  4.790140305122E-01  3.993413916154E-01  3.299202749467E-01
  2.698746269980E-01  2.183513480323E-01  1.745248555147E-01  1.376013082992E-01
  1.068224400410E-01  8.146895467278E-02  6.086344219728E-02  4.437277949380E-02
  3.140998822436E-02  2.143553017002E-02  1.395802929591E-02  8.534419377708E-03
  4.769525934784E-03  2.315101292438E-03  8.683416026761E-04  1.699243356598E-04
  1.613849501068E-06  1.834908869104E-04  5.708689715940E-04  1.050966438207E-03
  1.539407004726E-03  1.976624198039E-03  2.324245430197E-03  2.561530006484E-03
  2.681931802471E-03  2.689851819979E-03  2.597638439611E-03  2.422884123304E-03
  2.186056850864E-03  1.908493034222E-03  1.610766435611E-03  1.311435160819E-03
  1.026156575003E-03  7.671484758118E-04  5.429645235862E-04  3.585432029703E-04
  2.154828463112E-04  1.124907765210E-04  4.595261286199E-05  1.056829590044E-05
  4.367074126324E-09  7.517290640965E-06  2.650980970107E-05  5.099104673130E-05
  7.592076215020E-05  9.742827714907E-05  1.129064266038E-04  1.209899241966E-04
  1.214351401258E-04  1.149240539586E-04  1.028187268567E-04  8.689387634415E-05
  6.907405022369E-05  5.119868421048E-05  3.483336106848E-05  2.113938105596E-05
  1.080691839192E-05  4.050236875048E-06  6.573157404661E-07  8.136293277901E-08
  1.558500473681E-06  4.234646951841E-06  7.285336000845E-06  1.001471990893E-05
  1.192393717641E-05  1.274383679510E-05  1.243211986595E-05  1.113963232326E-05
  9.154236701489E-06  6.832963147769E-06  4.533749510948E-06  2.557023563521E-06
  1.104892498184E-06  2.622269116252E-07  3.999672991814E-11  0.000000000000E+00
  0.000000000000E+00  0.000000000000E+00  0.000000000000E+00  0.000000000000E+00
  0.000000000000E+00  0.000000000000E+00  0.000000000000E+00  0.000000000000E+00
  0.000000000000E+00  0.000000000000E+00  0.000000000000E+00  0.000000000000E+00
  0.000000000000E+00  0.000000000000E+00  0.000000000000E+00  0.000000000000E+00
  0.000000000000E+00  0.000000000000E+00  0.000000000000E+00  0.000000000000E+00
  0.000000000000E+00  0.000000000000E+00  0.000000000000E+00  0.000000000000E+00
  0.000000000000E+00  0.000000000000E+00  0.000000000000E+00  0.000000000000E+00
  0.000000000000E+00  0.000000000000E+00  0.000000000000E+00  0.000000000000E+00
  0.000000000000E+00  0.000000000000E+00  0.000000000000E+00  0.000000000000E+00
  0.000000000000E+00  0.000000000000E+00  0.000000000000E+00  0.000000000000E+00
  0.000000000000E+00  0.000000000000E+00  0.000000000000E+00  0.000000000000E+00
  0.000000000000E+00  0.000000000000E+00  0.000000000000E+00  0.000000000000E+00
  0.000000000000E+00  0.000000000000E+00  0.000000000000E+00  0.000000000000E+00
  0.000000000000E+00  0.000000000000E+00  0.000000000000E+00  0.000000000000E+00
  0.000000000000E+00  0.000000000000E+00  0.000000000000E+00  0.000000000000E+00
  0.000000000000E+00  0.000000000000E+00  0.000000000000E+00  0.000000000000E+00
  0.000000000000E+00  0.000000000000E+00  0.000000000000E+00  0.000000000000E+00
  0.000000000000E+00  0.000000000000E+00  0.000000000000E+00  0.000000000000E+00
  0.000000000000E+00  0.000000000000E+00  0.000000000000E+00  0.000000000000E+00
  0.000000000000E+00  0.000000000000E+00  0.000000000000E+00
</data>
</radfunc>
</pseudocore-charge>
<semilocal-potentials set="scalar_relativistic">
<slps n="3" l="s" rc="1.41250404180">
<radfunc>
<data npts="291">
 -1.850197037305E+01 -1.850222406866E+01 -1.850300659877E+01 -1.850430133753E+01
 -1.850610030719E+01 -1.850846371094E+01 -1.851147246264E+01 -1.851491309388E+01
 -1.851877578000E+01 -1.852327233626E+01 -1.852833045013E+01 -1.853381589822E+01
 -1.854042813311E+01 -1.854731373185E+01 -1.855417160577E+01 -1.856204524196E+01
 -1.857107794461E+01 -1.857960625895E+01 -1.858915437163E+01 -1.859983535538E+01
 -1.861177235868E+01 -1.862231559467E+01 -1.863382086101E+01 -1.864636520173E+01
 -1.866002945906E+01 -1.867489787706E+01 -1.869105751804E+01 -1.870407814597E+01
 -1.871791313661E+01 -1.873260042317E+01 -1.874817750073E+01 -1.876468094358E+01
 -1.878214582939E+01 -1.880060505742E+01 -1.882008854654E+01 -1.884062229763E+01
 -1.886222730376E+01 -1.888491829019E+01 -1.890065276397E+01 -1.891687303973E+01
 -1.893357686387E+01 -1.895075962823E+01 -1.896841408342E+01 -1.898653002863E+01
 -1.900509397666E+01 -1.902408879320E+01 -1.904349330944E+01 -1.906328190710E+01
 -1.908342407539E+01 -1.910388393923E+01 -1.912461975867E+01 -1.914558339963E+01
 -1.916671977616E+01 -1.918796626534E+01 -1.920925209590E+01 -1.923049771257E+01
 -1.925161411840E+01 -1.927250219843E+01 -1.929305202835E+01 -1.931314217312E+01
 -1.933263898086E+01 -1.935139587901E+01 -1.936925268003E+01 -1.938603490561E+01
 -1.940155313928E+01 -1.941560241820E+01 -1.942796167664E+01 -1.943343393938E+01
 -1.943839325404E+01 -1.944280725235E+01 -1.944664248230E+01 -1.944986440063E+01
 -1.945243736716E+01 -1.945432464118E+01 -1.945548837978E+01 -1.945588963860E+01
 -1.945548837482E+01 -1.945424345270E+01 -1.945211265171E+01 -1.944905267743E+01
 -1.944501917529E+01 -1.943996674731E+01 -1.943384897186E+01 -1.942661842664E+01
 -1.941822671490E+01 -1.940862449503E+01 -1.939776151351E+01 -1.938558664130E+01
 -1.937204791375E+01 -1.935709257403E+01 -1.934066712000E+01 -1.932271735460E+01
 -1.930318843967E+01 -1.928202495314E+01 -1.925917094956E+01 -1.923457002371E+01
 -1.920816537735E+01 -1.917989988885E+01 -1.914971618544E+01 -1.911755671808E+01
 -1.908336383858E+01 -1.904707987871E+01 -1.900864723118E+01 -1.896800843206E+01
 -1.892510624456E+01 -1.887988374364E+01 -1.883228440149E+01 -1.878225217332E+01
 -1.872973158349E+01 -1.867466781164E+01 -1.861700677865E+01 -1.855669523246E+01
 -1.849368083361E+01 -1.842791224057E+01 -1.835933919503E+01 -1.828791260742E+01
 -1.821358464298E+01 -1.813630880894E+01 -1.805604004354E+01 -1.797273480750E+01
 -1.788635117938E+01 -1.779684895555E+01 -1.770418975664E+01 -1.760833714185E+01
 -1.750925673324E+01 -1.740691635191E+01 -1.730128616887E+01 -1.719233887292E+01
 -1.708004985904E+01 -1.696439744030E+01 -1.684536308735E+01 -1.672293169961E+01
 -1.659709191275E+01 -1.646783644785E+01 -1.633516250781E+01 -1.619907222780E+01
 -1.605957318685E+01 -1.591667898890E+01 -1.577040992277E+01 -1.562079371138E+01
 -1.546786636248E+01 -1.531167313413E+01 -1.515226963038E+01 -1.498972304387E+01
 -1.482411356439E+01 -1.465553597335E+01 -1.448410144635E+01 -1.430993958602E+01
 -1.413320070800E+01 -1.395405840169E+01 -1.377271238484E+01 -1.358939166727E+01