<?xml version="1.0" encoding="UTF-8" ?>
<psml version="1.1" energy_unit="hartree" length_unit="bohr"
 uuid="aa7a7c90-4224-11e8-4f8b-f188ff7dd6fa"
 xmlns="http://esl.cecam.org/PSML/ns/1.1">
<provenance creator="ONCVPSP-3.3.0+psml-3.3.0-73 (fully-relativistic)"
 date="2018-04-17">
<annotation action="semilocal-pseudopotential-generation"
 action-cont="projectors-generation" />
<input-file name="oncvpsp-input">
<![CDATA[# atsym z nc nv iexc psfile
W 74 10 4 4 both
# n l f
1 0 2.0
2 0 2.0
2 1 6.0
3 0 2.0
3 1 6.0
3 2 10.0
4 0 2.0
4 1 6.0
4 2 10.0
4 3 14.0
5 0 2.0
5 1 6.0
5 2 4.0
6 0 2.0
# lmax
3
# l rc ep ncon nbas qcut
0 1.6 0.0 4 8 7.4
1 1.6 0.0 4 8 8.0
2 1.6 0.0 4 9 7.4
3 2.0 0.15 4 8 5.5
# lloc lpopt rc5 dvloc0
4 5 1.25 0.0
# l nproj debl
0 2 1.0
1 2 1.0
2 2 1.0
3 2 2.8
# icmod fcfact rcfact
3 5.0 1.36
# epsh1 epsh2 depsh
-12.0 12.0 0.02
# rlmax drl
6.0 0.01
 0
]]>
</input-file>
</provenance>
<pseudo-atom-spec atomic-label="W" atomic-number="74" z-pseudo="14"
 flavor="Hamann&apos;s oncvpsp" relativity="dirac" spin-dft="no"
 core-corrections="yes">
<annotation pseudo-energy="-68.7103319483" />
<exchange-correlation>
<annotation oncvpsp-xc-code="4" oncvpsp-xc-type="GGA -- Perdew-Burke-Ernzerhof" />
<libxc-info number-of-functionals="2">
<functional name="Perdew, Burke &amp; Ernzerhof (GGA)" type="exchange" id="101" />
<functional name="Perdew, Burke &amp; Ernzerhof (GGA)" type="correlation"
 id="130" />
</libxc-info>
</exchange-correlation>
<valence-configuration total-valence-charge="14">
<shell n="5" l="s" occupation="2" />
<shell n="5" l="p" occupation="6" />
<shell n="5" l="d" occupation="4" />
<shell n="6" l="s" occupation="2" />
</valence-configuration>
</pseudo-atom-spec>
<grid npts="458">
<annotation type="sampled from oncvpsp log grid"
 recipe="r(i:1..N) = r1*exp(a*(i-1)) + r=0; resampled"
 recipe-cont="r1: scale; a: step" scale="0.675675675676E-05"
 step="0.119285708653E-01" delta="0.500000000000E-02" rmax="44.3907762595" />
<grid-data>
  0.000000000000E+00  5.008898274364E-03  1.012493979345E-02  1.518902421755E-02
  2.022377266067E-02  2.536833196880E-02  3.070295048932E-02  3.585310515037E-02
  4.088014357042E-02  4.605932164004E-02  5.127930729975E-02  5.641391631537E-02
  6.206265493084E-02  6.746739433111E-02  7.247312905385E-02  7.785026362628E-02
  8.362635401292E-02  8.876581095806E-02  9.422112548187E-02  1.000117093648E-01
  1.061581673846E-01  1.113462160423E-01  1.167878094769E-01  1.224953386582E-01
  1.284818001142E-01  1.347608255254E-01  1.413467127651E-01  1.464965004517E-01
  1.518339141021E-01  1.573657896297E-01  1.630992120055E-01  1.690415243328E-01
  1.752003372510E-01  1.815835386839E-01  1.881993039416E-01  1.950561061912E-01
  2.021627273089E-01  2.095282691274E-01  2.145871196573E-01  2.197681110743E-01
  2.250741923480E-01  2.305083836481E-01  2.360737780629E-01  2.417735433604E-01
  2.476109237913E-01  2.535892419353E-01  2.597119005926E-01  2.659823847205E-01
  2.724042634172E-01  2.789811919532E-01  2.857169138517E-01  2.926152630197E-01
  2.996801659301E-01  3.069156438563E-01  3.143258151616E-01  3.219148976428E-01
  3.296872109315E-01  3.376471789522E-01  3.457993324409E-01  3.541483115233E-01
  3.626988683567E-01  3.714558698343E-01  3.804243003556E-01  3.896092646634E-01
  3.990159907494E-01  4.086498328301E-01  4.185162743939E-01  4.235384696867E-01
  4.286209313229E-01  4.337643824988E-01  4.389695550888E-01  4.442371897498E-01
  4.495680360268E-01  4.549628524592E-01  4.604224066887E-01  4.659474755689E-01
  4.715388452758E-01  4.771973114191E-01  4.829236791561E-01  4.887187633060E-01
  4.945833884656E-01  5.005183891272E-01  5.065246097968E-01  5.126029051143E-01
  5.187541399757E-01  5.249791896554E-01  5.312789399313E-01  5.376542872104E-01
  5.441061386570E-01  5.506354123208E-01  5.572430372687E-01  5.639299537159E-01
  5.706971131605E-01  5.775454785184E-01  5.844760242607E-01  5.914897365518E-01
  5.985876133904E-01  6.057706647511E-01  6.130399127281E-01  6.203963916808E-01
  6.278411483810E-01  6.353752421616E-01  6.429997450675E-01  6.507157420083E-01
  6.585243309124E-01  6.664266228834E-01  6.744237423580E-01  6.825168272663E-01
  6.907070291935E-01  6.989955135438E-01  7.073834597063E-01  7.158720612228E-01
  7.244625259575E-01  7.331560762690E-01  7.419539491842E-01  7.508573965744E-01
  7.598676853333E-01  7.689860975573E-01  7.782139307280E-01  7.875524978967E-01
  7.970031278715E-01  8.065671654059E-01  8.162459713908E-01  8.260409230475E-01
  8.359534141241E-01  8.459848550936E-01  8.561366733547E-01  8.664103134349E-01
  8.768072371962E-01  8.873289240425E-01  8.979768711310E-01  9.087525935846E-01
  9.196576247076E-01  9.306935162041E-01  9.418618383985E-01  9.531641804593E-01
  9.646021506248E-01  9.761773764323E-01  9.878915049495E-01  9.997462030089E-01
  1.011743157445E+00  1.023884075334E+00  1.036170684238E+00  1.048604732449E+00
  1.061187989239E+00  1.073922245109E+00  1.086809312051E+00  1.099851023795E+00
  1.113049236081E+00  1.126405826914E+00  1.139922696837E+00  1.153601769199E+00
  1.167444990429E+00  1.181454330314E+00  1.195631782278E+00  1.209979363666E+00
  1.224499116030E+00  1.239193105422E+00  1.254063422687E+00  1.269112183759E+00
  1.284341529964E+00  1.299753628324E+00  1.315350671864E+00  1.331134879926E+00
  1.347108498485E+00  1.363273800467E+00  1.379633086073E+00  1.396188683106E+00
  1.412942947303E+00  1.429898262670E+00  1.447057041823E+00  1.464421726324E+00
  1.481994787040E+00  1.499778724485E+00  1.517776069179E+00  1.535989382009E+00
  1.554421254593E+00  1.573074309648E+00  1.591951201364E+00  1.611054615780E+00
  1.630387271169E+00  1.649951918424E+00  1.669751341445E+00  1.689788357542E+00
  1.710065817832E+00  1.730586607646E+00  1.751353646938E+00  1.772369890701E+00
  1.793638329390E+00  1.815161989343E+00  1.836943933215E+00  1.858987260413E+00
  1.881295107538E+00  1.903870648829E+00  1.926717096615E+00  1.949837701774E+00
  1.973235754195E+00  1.996914583246E+00  2.020877558245E+00  2.045128088943E+00
  2.069669626011E+00  2.094505661523E+00  2.119639729461E+00  2.145075406215E+00
  2.170816311089E+00  2.196866106822E+00  2.223228500104E+00  2.249907242105E+00
  2.276906129011E+00  2.304229002559E+00  2.331879750590E+00  2.359862307597E+00
  2.388180655288E+00  2.416838823151E+00  2.445840889029E+00  2.475190979697E+00
  2.504893271454E+00  2.534951990711E+00  2.565371414600E+00  2.596155871575E+00
  2.627309742034E+00  2.658837458938E+00  2.690743508446E+00  2.723032430547E+00
  2.755708819713E+00  2.788777325550E+00  2.822242653457E+00  2.856109565298E+00
  2.890382880082E+00  2.925067474643E+00  2.960168284338E+00  2.995690303750E+00
  3.031638587395E+00  3.068018250444E+00  3.104834469450E+00  3.142092483083E+00
  3.179797592880E+00  3.217955163994E+00  3.256570625962E+00  3.295649473474E+00
  3.335197267156E+00  3.375219634362E+00  3.415722269974E+00  3.456710937214E+00
  3.498191468460E+00  3.540169766082E+00  3.582651803275E+00  3.625643624914E+00
  3.669151348413E+00  3.713181164594E+00  3.757739338569E+00  3.802832210632E+00
  3.848466197159E+00  3.894647791525E+00  3.941383565024E+00  3.988680167804E+00
  4.036544329817E+00  4.084982861775E+00  4.134002656117E+00  4.183610687990E+00
  4.233814016246E+00  4.284619784441E+00  4.336035221854E+00  4.388067644516E+00
  4.440724456251E+00  4.494013149726E+00  4.547941307522E+00  4.602516603213E+00
  4.657746802451E+00  4.713639764081E+00  4.770203441249E+00  4.827445882544E+00
  4.885375233135E+00  4.943999735933E+00  5.003327732764E+00  5.063367665557E+00
  5.124128077544E+00  5.185617614474E+00  5.247845025848E+00  5.310819166158E+00
  5.374548996152E+00  5.439043584106E+00  5.504312107115E+00  5.570363852400E+00
  5.637208218629E+00  5.704854717253E+00  5.773312973860E+00  5.842592729546E+00
  5.912703842301E+00  5.983656288408E+00  6.055460163869E+00  6.128125685836E+00
  6.201663194066E+00  6.276083152394E+00  6.351396150223E+00  6.427612904026E+00
  6.504744258874E+00  6.582801189981E+00  6.661794804260E+00  6.741736341912E+00
  6.822637178014E+00  6.904508824151E+00  6.987362930040E+00  7.071211285201E+00
  7.156065820623E+00  7.241938610471E+00  7.328841873796E+00  7.416787976282E+00
  7.505789431997E+00  7.595858905181E+00  7.687009212044E+00  7.779253322588E+00
  7.872604362459E+00  7.967075614809E+00  8.062680522186E+00  8.159432688453E+00
  8.257345880714E+00  8.356434031283E+00  8.456711239658E+00  8.558191774534E+00
  8.660890075828E+00  8.764820756738E+00  8.869998605819E+00  8.976438589089E+00
  9.084155852158E+00  9.193165722384E+00  9.303483711053E+00  9.415125515585E+00
  9.528107021772E+00  9.642444306033E+00  9.758153637706E+00  9.875251481358E+00
  9.993754499135E+00  1.011367955312E+01  1.023504370776E+01  1.035786423225E+01
  1.048215860304E+01  1.060794450628E+01  1.073523984035E+01  1.086406271844E+01
  1.099443147106E+01  1.112636464871E+01  1.125988102450E+01  1.139499959679E+01
  1.153173959195E+01  1.167012046706E+01  1.181016191266E+01  1.195188385561E+01
  1.209530646188E+01  1.224045013942E+01  1.238733554109E+01  1.253598356759E+01
  1.268641537040E+01  1.283865235484E+01  1.299271618310E+01  1.314862877730E+01
  1.330641232263E+01  1.346608927050E+01  1.362768234174E+01  1.379121452985E+01
  1.395670910420E+01  1.412418961345E+01  1.429367988882E+01  1.446520404748E+01
  1.463878649605E+01  1.481445193400E+01  1.499222535721E+01  1.517213206150E+01
  1.535419764624E+01  1.553844801799E+01  1.572490939421E+01  1.591360830694E+01
  1.610457160662E+01  1.629782646590E+01  1.649340038349E+01  1.669132118809E+01
  1.689161704235E+01  1.709431644686E+01  1.729944824422E+01  1.750704162315E+01
  1.771712612263E+01  1.792973163610E+01  1.814488841573E+01  1.836262707672E+01
  1.858297860164E+01  1.880597434486E+01  1.903164603700E+01  1.926002578944E+01
  1.949114609892E+01  1.972503985211E+01  1.996174033033E+01  2.020128121429E+01
  2.044369658887E+01  2.068902094793E+01  2.093728919931E+01  2.118853666970E+01
  2.144279910974E+01  2.170011269905E+01  2.196051405144E+01  2.222404022006E+01
  2.249072870270E+01  2.276061744713E+01  2.303374485650E+01  2.331014979478E+01
  2.358987159231E+01  2.387295005142E+01  2.415942545204E+01  2.444933855746E+01
  2.474273062015E+01  2.503964338759E+01  2.534011910824E+01  2.564420053754E+01
  2.595193094399E+01  2.626335411532E+01  2.657851436471E+01  2.689745653708E+01
  2.722022601553E+01  2.754686872771E+01  2.787743115245E+01  2.821196032628E+01
  2.855050385019E+01  2.889310989639E+01  2.923982721515E+01  2.959070514173E+01
  2.994579360343E+01  3.030514312667E+01  3.066880484419E+01  3.103683050232E+01
  3.140927246835E+01  3.178618373797E+01  3.216761794283E+01  3.255362935814E+01
  3.294427291044E+01  3.333960418536E+01  3.373967943559E+01  3.414455558882E+01
  3.455429025588E+01  3.496894173895E+01  3.538856903982E+01  3.581323186830E+01
  3.624299065072E+01  3.667790653853E+01  3.711804141699E+01  3.756345791399E+01
  3.801421940896E+01  3.847039004187E+01  3.893203472237E+01  3.939921913904E+01
  3.987200976871E+01  4.035047388593E+01  4.083467957256E+01  4.132469572743E+01
  4.182059207616E+01  4.232243918108E+01  4.283030845125E+01  4.334427215266E+01
  4.386440341850E+01  4.439077625952E+01
</grid-data>
</grid>
<valence-charge total-charge="14" is-unscreening-charge="yes"
 rescaled-to-z-pseudo="no">
<radfunc>
<data npts="458">
  1.335387346533E+00  1.336025749427E+00  1.337995888006E+00  1.341257883433E+00
  1.345794928939E+00  1.351763770637E+00  1.359376103534E+00  1.368099932791E+00
  1.377917932717E+00  1.389379286201E+00  1.402313691833E+00  1.416391117848E+00
  1.433430345008E+00  1.451256232858E+00  1.469094580951E+00  1.489679880021E+00
  1.513435170342E+00  1.536002727751E+00  1.561431054502E+00  1.590082542388E+00
  1.622365277207E+00  1.651112813539E+00  1.682738737594E+00  1.717530357600E+00
  1.755803274718E+00  1.797904025121E+00  1.844212917952E+00  1.881955626943E+00
  1.922489807907E+00  1.966019500547E+00  2.012763018094E+00  2.062953785124E+00
  2.116841184317E+00  2.174691400671E+00  2.236788248216E+00  2.303433959994E+00
  2.374949916950E+00  2.451677285071E+00  2.505901743684E+00  2.562714791839E+00
  2.622232710268E+00  2.684575871718E+00  2.749868706844E+00  2.818239635994E+00
  2.889820961078E+00  2.964748710992E+00  3.043162433240E+00  3.125204923527E+00
  3.211021884137E+00  3.300761500888E+00  3.394573927355E+00  3.492610663899E+00
  3.595023817802E+00  3.701965229592E+00  3.813585449297E+00  3.930032545143E+00
  4.051450725920E+00  4.177978757062E+00  4.309748149443E+00  4.446881098998E+00
  4.589488154668E+00  4.737665591900E+00  4.891492469124E+00  5.051027345411E+00
  5.216304639006E+00  5.387330608867E+00  5.564078944787E+00  5.654580696817E+00
  5.746485956497E+00  5.839780066261E+00  5.934445358431E+00  6.030460970559E+00
  6.127802654904E+00  6.226442582276E+00  6.326349140551E+00  6.427486728191E+00
  6.529815543226E+00  6.633291368167E+00  6.737865351446E+00  6.843483786053E+00
  6.950087886113E+00  7.057613562272E+00  7.165991196849E+00  7.275145419831E+00
  7.384994886894E+00  7.495452060764E+00  7.606422997357E+00  7.717807138276E+00
  7.829497111359E+00  7.941378541147E+00  8.053329871247E+00  8.165222200746E+00
  8.276919136952E+00  8.388276666895E+00  8.499143050170E+00  8.609358735833E+00
  8.718756306201E+00  8.827160450544E+00  8.934387971744E+00  9.040247829139E+00
  9.144541220830E+00  9.247061708797E+00  9.347595390238E+00  9.445921118544E+00
  9.541810777317E+00  9.635029610812E+00  9.725336614068E+00  9.812484985903E+00
  9.896222647763E+00  9.976292831179E+00  1.005243473633E+01  1.012438426385E+01
  1.019187482166E+01  1.025463820803E+01  1.031240557170E+01  1.036490844909E+01
  1.041187987809E+01  1.045305558709E+01  1.048817525699E+01  1.051698385328E+01
  1.053923302385E+01  1.055468255765E+01  1.056310189779E+01  1.056427170169E+01
  1.055798543977E+01  1.054405102266E+01  1.052229244601E+01  1.049255144053E+01
  1.045468911369E+01  1.040858756854E+01  1.035415148385E+01  1.029130963893E+01
  1.022001636565E+01  1.014025290953E+01  1.005202868130E+01  9.955382380163E+00
  9.850382970008E+00  9.737130490186E+00  9.615756683038E+00  9.486425421433E+00
  9.349332920804E+00  9.204707721892E+00  9.052810432355E+00  8.893933217783E+00
  8.728399035239E+00  8.556560605386E+00  8.378799122366E+00  8.195522703891E+00
  8.007164587404E+00  7.814181081578E+00  7.617049285793E+00  7.416264593480E+00
  7.212337998200E+00  7.005793224104E+00  6.797163704721E+00  6.586989436012E+00
  6.375813731076E+00  6.164179904918E+00  5.952627918200E+00  5.741691009032E+00
  5.531892341605E+00  5.323741700173E+00  5.117732256280E+00  4.914337436039E+00
  4.714007913336E+00  4.517168754271E+00  4.324216737772E+00  4.135517877302E+00
  3.951405168928E+00  3.772176591695E+00  3.598093387144E+00  3.429378645837E+00
  3.266216229552E+00  3.108750058249E+00  2.957083790566E+00  2.811280925250E+00
  2.671365348133E+00  2.537322344959E+00  2.409100094155E+00  2.286611645625E+00
  2.169738643082E+00  2.058340449962E+00  1.952266211705E+00  1.851356750128E+00
  1.755445932867E+00  1.664362229678E+00  1.577930073093E+00  1.495971133284E+00
  1.418305494771E+00  1.344752735851E+00  1.275132912008E+00  1.209267445124E+00
  1.146979920916E+00  1.088096797521E+00  1.032448028638E+00  9.798676049825E-01
  9.301940181362E-01  8.832706510963E-01  8.389461000100E-01  7.970744316902E-01
  7.575153815558E-01  7.201344966473E-01  6.848032283177E-01  6.513989791121E-01
  6.198051082290E-01  5.899108998020E-01  5.616114980680E-01  5.348078132998E-01
  5.094064021862E-01  4.853193260616E-01  4.624639903818E-01  4.407629683525E-01
  4.201438115623E-01  4.005388503765E-01  3.818849863767E-01  3.641234791670E-01
  3.471997295834E-01  3.310630611765E-01  3.156665016575E-01  3.009665658279E-01
  2.869230413437E-01  2.734987785051E-01  2.606594851062E-01  2.483735272324E-01
  2.366117367516E-01  2.253472261150E-01  2.145552109553E-01  2.042128408607E-01
  1.942990385931E-01  1.847943479245E-01  1.756807901796E-01  1.669417294921E-01
  1.585617467155E-01  1.505265218692E-01  1.428227249460E-01  1.354379148653E-01
  1.283604463170E-01  1.215793842124E-01  1.150844254324E-01  1.088658275466E-01
  1.029143441609E-01  9.722116654694E-02  9.177787119768E-02  8.657637295760E-02
  8.160888337600E-02  7.686787393938E-02  7.234604384671E-02  6.803629200179E-02
  6.393169290836E-02  6.002547616643E-02  5.631100928088E-02  5.278178350658E-02
  4.943140246666E-02  4.625357329259E-02  4.324210004539E-02  4.039087918699E-02
  3.769389688457E-02  3.514522791990E-02  3.273903601617E-02  3.046957537065E-02
  2.833119320229E-02  2.631833312827E-02  2.442553918976E-02  2.264746035617E-02
  2.097885534543E-02  1.941459760864E-02  1.794968033861E-02  1.657922137430E-02
  1.529846788683E-02  1.410280074694E-02  1.298773848865E-02  1.194894079902E-02
  1.098221147863E-02  1.008350083246E-02  9.248907464367E-03  8.474679461638E-03
  7.757214968282E-03  7.093062156083E-03  6.478918612224E-03  5.911630170156E-03
  5.388189217091E-03  4.905732516760E-03  4.461538590052E-03  4.053024698856E-03
  3.677743480028E-03  3.333379276968E-03  3.017744215939E-03  2.728774073141E-03
  2.464523976741E-03  2.223163985729E-03  2.002974584676E-03  1.802342130387E-03
  1.619754283100E-03  1.453795451437E-03  1.303142276811E-03  1.166559179543E-03
  1.042893985593E-03  9.310736495876E-04  8.301000869043E-04  7.390461250545E-04
  6.570515806665E-04  5.833194705847E-04  5.171123579800E-04  4.577488301662E-04
  4.046001255275E-04  3.570868921460E-04  3.146760817357E-04  2.768779811692E-04
  2.432433765679E-04  2.133608474602E-04  1.868541886131E-04  1.633799567087E-04
  1.426251389908E-04  1.243049409704E-04  1.081606902635E-04  9.395785361521E-05
  8.148416414492E-05  7.054785581398E-05  6.097600206985E-05  5.261295556181E-05
  4.531888575098E-05  3.896841115705E-05  3.344932289886E-05  2.866139610058E-05
  2.451528565348E-05  2.093150274952E-05  1.783946854098E-05  1.517664123257E-05
  1.288771288213E-05  1.092387217351E-05  9.242129433021E-06  7.804700187595E-06
  6.578443609781E-06  5.534352259792E-06  4.647089617742E-06  3.894571997896E-06
  3.257591549609E-06  2.719477174636E-06  2.265790325645E-06  1.884052793895E-06
  1.563503743229E-06  1.294883400700E-06  1.070240969520E-06  8.827644858286E-07
  7.266304955397E-07  5.968715797850E-07  4.892599061164E-07  4.002051265880E-07
  3.266650823115E-07  2.660679063763E-07  2.162442426638E-07  1.753684166855E-07
  1.419075059272E-07  1.145773611671E-07  9.230472686584E-08  7.419469807750E-08
  5.950283357371E-08  4.761132023470E-08  3.800865251439E-08  3.027235325107E-08
  2.405431861125E-08  1.906842088610E-08  1.508004857951E-08  1.189730411153E-08
  9.363615884962E-09  7.351553793917E-09  5.757665846916E-09  4.498178775631E-09
  3.505427628534E-09  2.724898712916E-09  2.112787135888E-09  1.633984871603E-09
  1.260427994119E-09  9.697426890043E-10  7.441390979799E-10  5.695101465082E-10
  4.346994231259E-10  3.309080728382E-10  2.512156705254E-10  1.901942743885E-10
  1.435984305580E-10  1.081169020085E-10  8.117441024311E-11  6.077377880279E-11
  4.537061611312E-11  3.377412572977E-11  2.506883146133E-11  1.855299332146E-11
  1.369030218233E-11  1.007210567682E-11  7.387960210025E-12  5.402744930828E-12
  3.938930902699E-12  2.862887367308E-12  2.074339343831E-12  1.498277188710E-12
  1.078767742787E-12  7.742354078487E-13  5.538757591339E-13  3.949385518185E-13
  2.626142352195E-13  1.861276905306E-13  1.314729657122E-13  2.891227682710E-14
  1.964370501927E-14  1.328843078141E-14  8.949742840812E-15  6.000826615565E-15
  4.005457092264E-15  2.661399717146E-15  1.760197473737E-15  1.158729065370E-15
  7.591844275352E-16  4.950316076121E-16  3.212283593477E-16  2.074268162655E-16
  1.332786074649E-16  8.520687790860E-17  5.419776032110E-17  3.429683163608E-17
  2.159065525874E-17  1.352040041372E-17  8.421661640969E-18  5.217505218339E-18
  3.214820872297E-18  1.969930815524E-18  1.200374210428E-18  7.273185418351E-19
  4.381728505350E-19  2.624515841233E-19  1.562807998915E-19  9.250903409069E-20
  5.443193745115E-20  3.183341436843E-20  1.850293887142E-20  1.068794384787E-20
  6.134950710899E-21  3.499117859258E-21  1.982911613564E-21  1.116379214887E-21
  6.243809170751E-22  3.468825570949E-22  1.914147020110E-22  1.049041499795E-22
  5.709507496976E-23  3.085720460790E-23  1.655884821134E-23  0.000000000000E+00
  0.000000000000E+00  0.000000000000E+00  0.000000000000E+00  0.000000000000E+00
  0.000000000000E+00  0.000000000000E+00  0.000000000000E+00  0.000000000000E+00
  0.000000000000E+00  0.000000000000E+00
</data>
</radfunc>
</valence-charge>
<pseudocore-charge matching-radius="0.941861838399"
 number-of-continuous-derivatives="4">
<annotation model-charge-form="Teter function with specified parameters" />
<radfunc>
<data npts="291">
  5.249926313916E+01  5.249672690018E+01  5.248890073964E+01  5.247594547790E+01
  5.245793177111E+01  5.243424307035E+01  5.240404784316E+01  5.236946577805E+01
  5.233057437889E+01  5.228521070984E+01  5.223406496029E+01  5.217845722933E+01
  5.211123008851E+01  5.204099250331E+01  5.197080061684E+01  5.188991674506E+01
  5.179673176474E+01  5.170835779662E+01  5.160895673047E+01  5.149717673578E+01
  5.137150674194E+01  5.125984245717E+01  5.113725975620E+01  5.100271991718E+01
  5.085509146000E+01  5.069314315171E+01  5.051553677050E+01  5.037118704297E+01
  5.021655756947E+01  5.005095051907E+01  4.987362595209E+01  4.968380010900E+01
  4.948064377253E+01  4.926328073515E+01  4.903078640968E+01  4.878218662735E+01
  4.851645667435E+01  4.823252062596E+01  4.803256078999E+01  4.782366257211E+01
  4.760546913087E+01  4.737761366977E+01  4.713971962253E+01  4.689140090316E+01
  4.663226222837E+01  4.636189951961E+01  4.607990039334E+01  4.578584474798E+01
  4.547930545717E+01  4.515984917893E+01  4.482703729143E+01  4.448042696614E+01
  4.411957238989E+01  4.374402614779E+01  4.335334077929E+01  4.294707052002E+01
  4.252477324242E+01  4.208601260800E+01  4.163036044444E+01  4.115739936017E+01
  4.066672560897E+01  4.015795221634E+01  3.963071237861E+01  3.908466314438E+01
  3.851948938644E+01  3.793490807015E+01  3.733067282199E+01  3.702111919840E+01
  3.670657879871E+01  3.638703335430E+01  3.606246785400E+01  3.573287072124E+01
  3.539823399546E+01  3.505855351758E+01  3.471382911941E+01  3.436406481665E+01
  3.400926900552E+01  3.364945466242E+01  3.328463954658E+01  3.291484640528E+01
  3.254010318119E+01  3.216044322159E+01  3.177590548889E+01  3.138653477195E+01
  3.099238189784E+01  3.059350394322E+01  3.018996444487E+01  2.978183360870E+01
  2.936918851642E+01  2.895211332911E+01  2.853069948700E+01  2.810504590431E+01
  2.767525915850E+01  2.724145367268E+01  2.680375189029E+01  2.636228444088E+01
  2.591719029576E+01  2.546861691244E+01  2.501672036642E+01  2.456166546908E+01
  2.410362587028E+01  2.364278414422E+01  2.317933185701E+01  2.271346961455E+01
  2.224540708901E+01  2.177536302244E+01  2.130356520575E+01  2.083025043146E+01
  2.035566441861E+01  1.988006170803E+01  1.940370552638E+01  1.892686761729E+01
  1.844982803793E+01  1.797287491942E+01  1.749630418956E+01  1.702041925638E+01
  1.654553065104E+01  1.607195562890E+01  1.560001772748E+01  1.513004628022E+01
  1.466237588526E+01  1.419734582839E+01  1.373529945973E+01  1.327658352374E+01
  1.282154744259E+01  1.237054255303E+01  1.192392129724E+01  1.148203636851E+01
  1.104523981285E+01  1.061388208809E+01  1.018831108229E+01  9.768871093817E+00
  9.355901775781E+00  8.949737048022E+00  8.550703980264E+00  8.159121650559E+00
  7.775299983601E+00  7.399538574012E+00  7.032125500176E+00  6.673336134691E+00
  6.323431958017E+00  5.982659382335E+00  5.651248593113E+00  5.329412416284E+00
  5.017345219335E+00  4.715221854952E+00  4.423196656179E+00  4.141402492241E+00
  3.869949894418E+00  3.608926261375E+00  3.358395153422E+00  3.118395685031E+00
  2.888942024777E+00  2.670023011554E+00  2.461601895474E+00  2.263616211303E+00
  2.075977791623E+00  1.898572926045E+00  1.731262671862E+00  1.573883320402E+00
  1.426247022129E+00  1.288142572116E+00  1.159336356052E+00  1.039573455287E+00
  9.285789077060E-01  8.260591193899E-01  7.317034201413E-01  6.451857539986E-01
  5.661664939101E-01  4.942943677762E-01  4.292084811547E-01  3.705404200812E-01
  3.179164157221E-01  2.709595510009E-01  2.292919879483E-01  1.925371933655E-01
  1.603221395100E-01  1.322794559320E-01  1.080495083637E-01  8.728238071046E-02
  6.963973674777E-02  5.479653910456E-02  4.244260453091E-02  3.228397630417E-02
  2.404409691919E-02  1.746476691611E-02  1.230687879371E-02  8.350918396107E-03
  5.397229890082E-03  3.266044403064E-03  1.797276489298E-03  8.500967439407E-04
  3.022929943071E-04  4.943645888816E-05  3.872969167292E-06  9.356268672042E-05
  2.607946113867E-04  4.608044647923E-04  6.603261573731E-04  8.361079314339E-04
  9.734243619906E-04  1.064614658444E-03  1.107676137063E-03  1.104939349212E-03
  1.061848206131E-03  9.858646216172E-04  8.855128129615E-04  7.695735993510E-04
  6.464339806117E-04  5.235921508686E-04  4.073130956795E-04  3.024252347338E-04
  2.122443962642E-04  1.386079188606E-04  8.199902054130E-05  4.173986775054E-05
  1.623108917626E-05  3.215832076754E-06  4.781974690889E-08  3.945150834772E-06
  1.221464512824E-05  2.243520039684E-05  3.259265800846E-05  4.116283390219E-05
  4.714339928033E-05  5.003894287513E-05  4.980658981845E-05  4.677180905023E-05
  4.152538675524E-05  3.481292050573E-05  2.742761505856E-05  2.011572854813E-05
  1.350188867956E-05  8.038890785486E-06  3.983760199343E-06  1.399083110967E-06
  1.761461269479E-07  7.450305335326E-08  7.713771499954E-07  1.913900478881E-06
  3.167593409170E-06  4.255612004388E-06  4.984973481157E-06  5.257982745060E-06
  5.069163550551E-06  4.489880594452E-06  3.644289380275E-06  2.681096674523E-06
  1.745769444292E-06  9.573065031868E-07  3.925943144930E-07  7.989795234389E-08
  0.000000000000E+00  0.000000000000E+00  0.000000000000E+00  0.000000000000E+00
  0.000000000000E+00  0.000000000000E+00  0.000000000000E+00  0.000000000000E+00
  0.000000000000E+00  0.000000000000E+00  0.000000000000E+00  0.000000000000E+00
  0.000000000000E+00  0.000000000000E+00  0.000000000000E+00  0.000000000000E+00
  0.000000000000E+00  0.000000000000E+00  0.000000000000E+00  0.000000000000E+00
  0.000000000000E+00  0.000000000000E+00  0.000000000000E+00  0.000000000000E+00
  0.000000000000E+00  0.000000000000E+00  0.000000000000E+00  0.000000000000E+00
  0.000000000000E+00  0.000000000000E+00  0.000000000000E+00  0.000000000000E+00
  0.000000000000E+00  0.000000000000E+00  0.000000000000E+00  0.000000000000E+00
  0.000000000000E+00  0.000000000000E+00  0.000000000000E+00
</data>
</radfunc>
</pseudocore-charge>
<semilocal-potentials set="scalar_relativistic">
<slps n="5" l="s" rc="1.61105461578">
<radfunc>
<data npts="291">
 -2.650504901178E+00 -2.652531891721E+00 -2.658784284575E+00 -2.669126584296E+00
 -2.683490990611E+00 -2.702352278083E+00 -2.726347421785E+00 -2.753764491012E+00
 -2.784516515423E+00 -2.820277646990E+00 -2.860457293649E+00 -2.903975192711E+00
 -2.956355306528E+00 -3.010812711740E+00 -3.064962705593E+00 -3.127026455152E+00
 -3.198088517454E+00 -3.265049785257E+00 -3.339868553533E+00 -3.423381633746E+00
 -3.516493140934E+00 -3.598543589046E+00 -3.687884553897E+00 -3.785068562719E+00
 -3.890671319875E+00 -4.005288774282E+00 -4.129533202679E+00 -4.229409083639E+00
 -4.335316029591E+00 -4.447519109069E+00 -4.566281166815E+00 -4.691860492990E+00
 -4.824508198533E+00 -4.964465287739E+00 -5.111959423571E+00 -5.267201386530E+00
 -5.430381234309E+00 -5.601664176740E+00 -5.720423013465E+00 -5.842876481349E+00
 -5.969049393473E+00 -6.098958605921E+00 -6.232612363551E+00 -6.370009638948E+00
 -6.511139468608E+00 -6.655980290764E+00 -6.804499289571E+00 -6.956651750677E+00
 -7.112380433410E+00 -7.271614965008E+00 -7.434271262437E+00 -7.600250987339E+00
 -7.769441039652E+00 -7.941713095261E+00 -8.116923192847E+00 -8.294911374740E+00
 -8.475501386196E+00 -8.658500436973E+00 -8.843699028505E+00 -9.030870849303E+00
 -9.219772740452E+00 -9.410144732327E+00 -9.601710152824E+00 -9.794175806586E+00
 -9.987232223939E+00 -1.018055397750E+01 -1.037380006372E+01 -1.047028401675E+01
 -1.056661434619E+01 -1.066274425273E+01 -1.075862605691E+01 -1.085421121767E+01
 -1.094945035166E+01 -1.104429325331E+01 -1.113868891548E+01 -1.123258555091E+01
 -1.132593061421E+01 -1.141867082453E+01 -1.151075218880E+01 -1.160212002553E+01
 -1.169271898926E+01 -1.178249309548E+01 -1.187138574620E+01 -1.195933975608E+01
 -1.204629737903E+01 -1.213220033562E+01 -1.221698984087E+01 -1.230060663289E+01
 -1.238299100212E+01 -1.246408282125E+01 -1.254382157606E+01 -1.262214639696E+01
 -1.269899609157E+01 -1.277430917814E+01 -1.284802392014E+01 -1.292007836195E+01
 -1.299041036577E+01 -1.305895764990E+01 -1.312565782840E+01 -1.319044845230E+01
 -1.325326705244E+01 -1.331405118403E+01 -1.337273847306E+01 -1.342926666459E+01
 -1.348357367310E+01 -1.353559763485E+01 -1.358527696248E+01 -1.363255040168E+01
 -1.367735709021E+01 -1.371963661898E+01 -1.375932909543E+01 -1.379637520894E+01
 -1.383071629828E+01 -1.386229442089E+01 -1.389105242381E+01 -1.391693401601E+01
 -1.393988384174E+01 -1.395984755465E+01 -1.397677189202E+01 -1.399060474882E+01
 -1.400129525085E+01 -1.400879382626E+01 -1.401305227498E+01 -1.401402383492E+01
 -1.401166324445E+01 -1.400592680009E+01 -1.399677240855E+01 -1.398415963245E+01
 -1.396804972864E+01 -1.394840567854E+01 -1.392519220991E+01 -1.389837580945E+01
 -1.386792472623E+01 -1.383380896580E+01 -1.379600027558E+01 -1.375447212240E+01
 -1.370919966352E+01 -1.366015971328E+01 -1.360733070800E+01 -1.355069267294E+01
 -1.349022719568E+01 -1.342591741157E+01 -1.335774800811E+01 -1.328570525640E+01
 -1.320977707910E+01 -1.312995316636E+01 -1.304622515238E+01 -1.295858686758E+01