<?xml version="1.0" encoding="UTF-8" ?>
<psml version="1.1" energy_unit="hartree" length_unit="bohr"
 uuid="9c7bcdf0-516b-11e8-50fc-9ae13da9d45d"
 xmlns="http://esl.cecam.org/PSML/ns/1.1">
<provenance creator="ONCVPSP-3.3.0+psml-3.3.0-73 (fully-relativistic)"
 date="2018-05-06">
<annotation action="semilocal-pseudopotential-generation"
 action-cont="projectors-generation" />
<input-file name="oncvpsp-input">
<![CDATA[# atsym z nc nv iexc psfile
Br 35 5 3 4 both
# n l f
1 0 2.0
2 0 2.0
2 1 6.0
3 0 2.0
3 1 6.0
3 2 10.0
4 0 2.0
4 1 5.0
# lmax
2
# l rc ep ncon nbas qcut
0 1.8 0.0 4 8 5.8
1 1.5 0.0 4 8 6.6
2 1.9 0.0 4 8 8.6
# lloc lpopt rc5 dvloc0
4 5 1.5 0.0
# l nproj debl
0 2 3.2
1 2 4.0
2 2 2.5
# icmod fcfact rcfact
3 3.5 1.5
# epsh1 epsh2 depsh
-12.0 12.0 0.02
# rlmax drl
6.0 0.01
 0
]]>
</input-file>
</provenance>
<pseudo-atom-spec atomic-label="Br" atomic-number="35" z-pseudo="17"
 flavor="Hamann&apos;s oncvpsp" relativity="dirac" spin-dft="no"
 core-corrections="yes">
<annotation pseudo-energy="-127.997706459" />
<exchange-correlation>
<annotation oncvpsp-xc-code="4" oncvpsp-xc-type="GGA -- Perdew-Burke-Ernzerhof" />
<libxc-info number-of-functionals="2">
<functional name="Perdew, Burke &amp; Ernzerhof (GGA)" type="exchange" id="101" />
<functional name="Perdew, Burke &amp; Ernzerhof (GGA)" type="correlation"
 id="130" />
</libxc-info>
</exchange-correlation>
<valence-configuration total-valence-charge="17">
<shell n="3" l="d" occupation="10" />
<shell n="4" l="s" occupation="2" />
<shell n="4" l="p" occupation="5" />
</valence-configuration>
</pseudo-atom-spec>
<grid npts="457">
<annotation type="sampled from oncvpsp log grid"
 recipe="r(i:1..N) = r1*exp(a*(i-1)) + r=0; resampled"
 recipe-cont="r1: scale; a: step" scale="0.142857142857E-04"
 step="0.119285708653E-01" delta="0.500000000000E-02" rmax="44.2674114500" />
<grid-data>
  0.000000000000E+00  5.054917964046E-03  1.009680193746E-02  1.514681294670E-02
  2.016756950152E-02  2.529783174994E-02  3.061762502401E-02  3.575346707549E-02
  4.076653503389E-02  4.593131983604E-02  5.113679882137E-02  5.625713842976E-02
  6.189017883894E-02  6.727989812235E-02  7.313898224683E-02  7.856551971204E-02
  8.439467843280E-02  8.958135458679E-02  9.508679028850E-02  1.009305756658E-01
  1.071335048047E-01  1.123692191118E-01  1.178608076606E-01  1.236207752640E-01
  1.296622378566E-01  1.359989523613E-01  1.426453480144E-01  1.478424498244E-01
  1.532289014281E-01  1.588116015445E-01  1.645977002384E-01  1.705946080783E-01
  1.768100056273E-01  1.832518532800E-01  1.899284014579E-01  1.968482011761E-01
  2.040201149951E-01  2.114533283713E-01  2.165586575315E-01  2.217872497590E-01
  2.271420811171E-01  2.326261995236E-01  2.382427264849E-01  2.439948588732E-01
  2.498858707458E-01  2.559191152091E-01  2.620980263267E-01  2.684261210743E-01
  2.749070013416E-01  2.815443559820E-01  2.883419629128E-01  2.953036912653E-01
  3.024335035873E-01  3.097354580979E-01  3.172137109982E-01  3.248725188365E-01
  3.327162409313E-01  3.407493418524E-01  3.489763939620E-01  3.574020800179E-01
  3.660311958378E-01  3.748686530301E-01  3.839194817889E-01  3.931888337572E-01
  4.026819849594E-01  4.124043388043E-01  4.223614291604E-01  4.274297663103E-01
  4.325589235060E-01  4.377496305881E-01  4.430026261552E-01  4.483186576690E-01
  4.536984815610E-01  4.591428633398E-01  4.646525776999E-01  4.702284086323E-01
  4.758711495358E-01  4.815816033303E-01  4.873605825702E-01  4.932089095611E-01
  4.991274164758E-01  5.051169454735E-01  5.111783488192E-01  5.173124890050E-01
  5.235202388731E-01  5.298024817396E-01  5.361601115204E-01  5.425940328587E-01
  5.491051612530E-01  5.556944231880E-01  5.623627562663E-01  5.691111093415E-01
  5.759404426536E-01  5.828517279654E-01  5.898459487010E-01  5.969241000854E-01
  6.040871892864E-01  6.113362355579E-01  6.186722703846E-01  6.260963376292E-01
  6.336094936807E-01  6.412128076049E-01  6.489073612962E-01  6.566942496317E-01
  6.645745806273E-01  6.725494755948E-01  6.806200693020E-01  6.887875101336E-01
  6.970529602552E-01  7.054175957783E-01  7.138826069276E-01  7.224491982107E-01
  7.311185885893E-01  7.398920116523E-01  7.487707157922E-01  7.577559643817E-01
  7.668490359542E-01  7.760512243857E-01  7.853638390783E-01  7.947882051473E-01
  8.043256636090E-01  8.139775715723E-01  8.237453024312E-01  8.336302460604E-01
  8.436338090131E-01  8.537574147213E-01  8.640025036979E-01  8.743705337423E-01
  8.848629801472E-01  8.954813359090E-01  9.062271119399E-01  9.171018372832E-01
  9.281070593305E-01  9.392443440425E-01  9.505152761710E-01  9.619214594851E-01
  9.734645169989E-01  9.851460912029E-01  9.969678442973E-01  1.008931458429E+00
  1.021038635930E+00  1.033291099561E+00  1.045690592756E+00  1.058238879869E+00
  1.070937746427E+00  1.083788999385E+00  1.096794467377E+00  1.109956000986E+00
  1.123275472998E+00  1.136754778673E+00  1.150395836018E+00  1.164200586050E+00
  1.178170993082E+00  1.192309044999E+00  1.206616753539E+00  1.221096154582E+00
  1.235749308437E+00  1.250578300138E+00  1.265585239740E+00  1.280772262617E+00
  1.296141529768E+00  1.311695228125E+00  1.327435570863E+00  1.343364797713E+00
  1.359485175286E+00  1.375798997389E+00  1.392308585358E+00  1.409016288382E+00
  1.425924483843E+00  1.443035577649E+00  1.460352004580E+00  1.477876228635E+00
  1.495610743379E+00  1.513558072300E+00  1.531720769167E+00  1.550101418397E+00
  1.568702635418E+00  1.587527067043E+00  1.606577391848E+00  1.625856320550E+00
  1.645366596396E+00  1.665110995553E+00  1.685092327500E+00  1.705313435430E+00
  1.725777196655E+00  1.746486523015E+00  1.767444361291E+00  1.788653693626E+00
  1.810117537950E+00  1.831838948405E+00  1.853821015786E+00  1.876066867976E+00
  1.898579670391E+00  1.921362626436E+00  1.944418977953E+00  1.967752005689E+00
  1.991365029757E+00  2.015261410114E+00  2.039444547035E+00  2.063917881600E+00
  2.088684896179E+00  2.113749114933E+00  2.139114104312E+00  2.164783473564E+00
  2.190760875247E+00  2.217050005750E+00  2.243654605819E+00  2.270578461089E+00
  2.297825402622E+00  2.325399307453E+00  2.353304099143E+00  2.381543748332E+00
  2.410122273312E+00  2.439043740592E+00  2.468312265479E+00  2.497932012665E+00
  2.527907196817E+00  2.558242083179E+00  2.588940988177E+00  2.620008280035E+00
  2.651448379395E+00  2.683265759948E+00  2.715464949067E+00  2.748050528456E+00
  2.781027134798E+00  2.814399460415E+00  2.848172253940E+00  2.882350320988E+00
  2.916938524839E+00  2.951941787138E+00  2.987365088583E+00  3.023213469646E+00
  3.059492031282E+00  3.096205935657E+00  3.133360406885E+00  3.170960731768E+00
  3.209012260549E+00  3.247520407676E+00  3.286490652568E+00  3.325928540399E+00
  3.365839682883E+00  3.406229759078E+00  3.447104516187E+00  3.488469770381E+00
  3.530331407626E+00  3.572695384517E+00  3.615567729131E+00  3.658954541881E+00
  3.702861996384E+00  3.747296340340E+00  3.792263896424E+00  3.837771063181E+00
  3.883824315940E+00  3.930430207731E+00  3.977595370224E+00  4.025326514666E+00
  4.073630432842E+00  4.122513998036E+00  4.171984166013E+00  4.222047976005E+00
  4.272712551717E+00  4.323985102338E+00  4.375872923566E+00  4.428383398648E+00
  4.481523999432E+00  4.535302287425E+00  4.589725914875E+00  4.644802625853E+00
  4.700540257363E+00  4.756946740452E+00  4.814030101337E+00  4.871798462553E+00
  4.930260044104E+00  4.989423164633E+00  5.049296242609E+00  5.109887797520E+00
  5.171206451090E+00  5.233260928503E+00  5.296060059645E+00  5.359612780361E+00
  5.423928133725E+00  5.489015271330E+00  5.554883454586E+00  5.621542056041E+00
  5.689000560713E+00  5.757268567442E+00  5.826355790251E+00  5.896272059734E+00
  5.967027324451E+00  6.038631652345E+00  6.111095232173E+00  6.184428374959E+00
  6.258641515458E+00  6.333745213644E+00  6.409750156208E+00  6.486667158082E+00
  6.564507163979E+00  6.643281249947E+00  6.723000624946E+00  6.803676632445E+00
  6.885320752035E+00  6.967944601059E+00  7.051559936272E+00  7.136178655507E+00
  7.221812799373E+00  7.308474552966E+00  7.396176247601E+00  7.484930362573E+00
  7.574749526923E+00  7.665646521247E+00  7.757634279501E+00  7.850725890855E+00
  7.944934601546E+00  8.040273816764E+00  8.136757102565E+00  8.234398187796E+00
  8.333210966050E+00  8.433209497642E+00  8.534408011614E+00  8.636820907753E+00
  8.740462758647E+00  8.845348311750E+00  8.951492491491E+00  9.058910401389E+00
  9.167617326206E+00  9.277628734120E+00  9.388960278930E+00  9.501627802277E+00
  9.615647335904E+00  9.731035103935E+00  9.847807525182E+00  9.965981215485E+00
  1.008557299007E+01  1.020659986595E+01  1.032907906434E+01  1.045302801311E+01
  1.057846434927E+01  1.070540592146E+01  1.083387079252E+01  1.096387724203E+01
  1.109544376894E+01  1.122858909416E+01  1.136333216329E+01  1.149969214925E+01
  1.163768845504E+01  1.177734071650E+01  1.191866880510E+01  1.206169283076E+01
  1.220643314473E+01  1.235291034247E+01  1.250114526658E+01  1.265115900978E+01
  1.280297291789E+01  1.295660859291E+01  1.311208789602E+01  1.326943295078E+01
  1.342866614619E+01  1.358981013994E+01  1.375288786162E+01  1.391792251596E+01
  1.408493758615E+01  1.425395683718E+01  1.442500431923E+01  1.459810437106E+01
  1.477328162351E+01  1.495056100300E+01  1.512996773503E+01  1.531152734785E+01
  1.549526567603E+01  1.568120886414E+01  1.586938337051E+01  1.605981597095E+01
  1.625253376261E+01  1.644756416776E+01  1.664493493777E+01  1.684467415702E+01
  1.704681024691E+01  1.725137196987E+01  1.745838843351E+01  1.766788909471E+01
  1.787990376385E+01  1.809446260901E+01  1.831159616032E+01  1.853133531425E+01
  1.875371133802E+01  1.897875587407E+01  1.920650094456E+01  1.943697895590E+01
  1.967022270337E+01  1.990626537581E+01  2.014514056032E+01  2.038688224704E+01
  2.063152483401E+01  2.087910313201E+01  2.112965236960E+01  2.138320819803E+01
  2.163980669641E+01  2.189948437677E+01  2.216227818929E+01  2.242822552756E+01
  2.269736423389E+01  2.296973260470E+01  2.324536939595E+01  2.352431382871E+01
  2.380660559465E+01  2.409228486179E+01  2.438139228013E+01  2.467396898749E+01
  2.497005661534E+01  2.526969729472E+01  2.557293366226E+01  2.587980886621E+01
  2.619036657260E+01  2.650465097147E+01  2.682270678313E+01  2.714457926453E+01
  2.747031421570E+01  2.779995798629E+01  2.813355748213E+01  2.847116017191E+01
  2.881281409397E+01  2.915856786310E+01  2.950847067746E+01  2.986257232559E+01
  3.022092319350E+01  3.058357427182E+01  3.095057716308E+01  3.132198408904E+01
  3.169784789810E+01  3.207822207288E+01  3.246316073776E+01  3.285271866661E+01
  3.324695129061E+01  3.364591470610E+01  3.404966568257E+01  3.445826167076E+01
  3.487176081081E+01  3.529022194054E+01  3.571370460383E+01  3.614226905907E+01
  3.657597628778E+01  3.701488800323E+01  3.745906665927E+01  3.790857545918E+01
  3.836347836469E+01  3.882384010507E+01  3.928972618633E+01  3.976120290057E+01
  4.023833733537E+01  4.072119738340E+01  4.120985175200E+01  4.170436997302E+01
  4.220482241270E+01  4.271128028165E+01  4.322381564503E+01  4.374250143277E+01
  4.426741144996E+01
</grid-data>
</grid>
<valence-charge total-charge="17" is-unscreening-charge="yes"
 rescaled-to-z-pseudo="no">
<radfunc>
<data npts="457">
  1.051157699395E-02  1.054068278035E-02  1.063483540819E-02  1.081574317571E-02
  1.111674995969E-02  1.160007146769E-02  1.236001345402E-02  1.342806340752E-02
  1.488082648968E-02  1.691105577536E-02  1.963232152419E-02  2.310913004444E-02
  2.803045799636E-02  3.400814338873E-02  4.215621053991E-02  5.147337127771E-02
  6.365613118524E-02  7.663407478278E-02  9.287716125602E-02  1.132097929349E-01
  1.386606144759E-01  1.635573894121E-01  1.933400205821E-01  2.289545657808E-01
  2.715231617301E-01  3.223741784083E-01  3.830766389440E-01  4.361688548551E-01
  4.967328254377E-01  5.657791781040E-01  6.444442787586E-01  7.340031754864E-01
  8.358831986751E-01  9.516780577507E-01  1.083162205152E+00  1.232305152189E+00
  1.401285316488E+00  1.592502854248E+00  1.733625701177E+00  1.886636581703E+00
  2.052423500095E+00  2.231923320293E+00  2.426121647934E+00  2.636052141040E+00
  2.862795143741E+00  3.107475525812E+00  3.371259598710E+00  3.655350966602E+00
  3.960985158734E+00  4.289422877828E+00  4.641941688331E+00  5.019825958942E+00
  5.424354866411E+00  5.856788263016E+00  6.318350209200E+00  6.810209976696E+00
  7.333460337225E+00  7.889092968947E+00  8.477970838713E+00  9.100797454465E+00
  9.758082930699E+00  1.045010687243E+01  1.117687816160E+01  1.193809182604E+01
  1.273308328665E+01  1.356078041476E+01  1.441965398978E+01  1.486016668313E+01
  1.530766732709E+01  1.576181380020E+01  1.622222604784E+01  1.668848460656E+01
  1.716012918359E+01  1.763665730495E+01  1.811752304706E+01  1.860213586729E+01
  1.908985955010E+01  1.958001128651E+01  2.007186090527E+01  2.056463027515E+01
  2.105749289871E+01  2.154957371832E+01  2.203994915615E+01  2.252764741014E+01
  2.301164902833E+01  2.349088778428E+01  2.396425187606E+01  2.443058547124E+01
  2.488869061975E+01  2.533732955570E+01  2.577522740829E+01  2.620107534038E+01
  2.661353413177E+01  2.701123822187E+01  2.739280022404E+01  2.775681592090E+01
  2.810186974642E+01  2.842654075674E+01  2.872940908732E+01  2.900906288905E+01
  2.926410573091E+01  2.949316445045E+01  2.969489742760E+01  2.986800325034E+01
  3.001122973359E+01  3.012338324549E+01  3.020333828725E+01  3.025004726486E+01
  3.026255038308E+01  3.023998558364E+01  3.018159844190E+01  3.008675192834E+01
  2.995493593384E+01  2.978577645083E+01  2.957904429627E+01  2.933466325726E+01
  2.905271753568E+01  2.873345836569E+01  2.837730967627E+01  2.798487267161E+01
  2.755692920400E+01  2.709444381861E+01  2.659856435568E+01  2.607062100506E+01
  2.551212371898E+01  2.492475790356E+01  2.431037832580E+01  2.367100119250E+01
  2.300879437911E+01  2.232606581112E+01  2.162525002670E+01  2.090889297812E+01
  2.017963515910E+01  1.944019317636E+01  1.869333991547E+01  1.794188348242E+01
  1.718864513346E+01  1.643643643524E+01  1.568803592443E+01  1.494616556053E+01
  1.421346728575E+01  1.349248002185E+01  1.278561744391E+01  1.209514687529E+01
  1.142316964541E+01  1.077160324179E+01  1.014216557032E+01  9.536361612253E+00
  8.955472732909E+00  8.400548856636E+00  7.872403674399E+00  7.371612996646E+00
  6.898516304784E+00  6.453221491590E+00  6.035612715485E+00  5.645361227560E+00
  5.281938965430E+00  4.944634646392E+00  4.632572035906E+00  4.344730018083E+00
  4.079964054445E+00  3.837028587302E+00  3.614599925952E+00  3.411299148519E+00
  3.225714560040E+00  3.056423268428E+00  2.902011473675E+00  2.761093111046E+00
  2.632326544621E+00  2.514429071277E+00  2.406189064846E+00  2.306475663039E+00
  2.214245973059E+00  2.128549842787E+00  2.048531823982E+00  1.973428946126E+00
  1.902565427012E+00  1.835348825238E+00  1.771266290749E+00  1.709878835938E+00
  1.650815317620E+00  1.593765962193E+00  1.538475748983E+00  1.484737860259E+00
  1.432387373814E+00  1.381295333021E+00  1.331363287973E+00  1.282518362230E+00
  1.234708864689E+00  1.187900554439E+00  1.142073884491E+00  1.097221913389E+00
  1.053347804088E+00  1.010462277294E+00  9.685811760355E-01  9.277218321642E-01
  8.878995743530E-01  8.491272163046E-01  8.114154666512E-01  7.747726765492E-01
  7.392048666176E-01  7.047157345530E-01  6.713066838568E-01  6.389768685298E-01
  6.077232517427E-01  5.775406768948E-01  5.484219494160E-01  5.203579277474E-01
  4.933376220107E-01  4.673482989611E-01  4.423755918943E-01  4.184036142703E-01
  3.954150759003E-01  3.733914006614E-01  3.523128446223E-01  3.321586139897E-01
  3.129069817720E-01  2.945354025993E-01  2.770206250520E-01  2.603388009265E-01
  2.444655909846E-01  2.293762667690E-01  2.150458081596E-01  2.014489964003E-01
  1.885605023848E-01  1.763549700465E-01  1.648070947467E-01  1.538916965983E-01
  1.435837887046E-01  1.338586403263E-01  1.246918350204E-01  1.160593238233E-01
  1.079374735701E-01  1.003031104632E-01  9.313355901868E-02  8.640667653238E-02
  8.010088321651E-02  7.419518816943E-02  6.866921134577E-02  6.350320170099E-02
  5.867805168892E-02  5.417530829490E-02  4.997718079009E-02  4.606654539528E-02
  4.242694704461E-02  3.904259844116E-02  3.589837659726E-02  3.297981705295E-02
  3.027310596554E-02  2.776507026215E-02  2.544316604549E-02  2.329546543999E-02
  2.131064206213E-02  1.947795529400E-02  1.778723353366E-02  1.622885658983E-02
  1.479373738074E-02  1.347330308974E-02  1.225947592124E-02  1.114465359172E-02
  1.012168968123E-02  9.183873960607E-03  8.324912800139E-03  7.538909755007E-03
  6.820346413000E-03  6.164063580035E-03  5.565242869348E-03  5.019388750859E-03
  4.522311108200E-03  4.070108342343E-03  3.659151052695E-03  3.286066319008E-03
  2.947722600483E-03  2.641215262114E-03  2.363852732591E-03  2.113143292966E-03
  1.886782490840E-03  1.682641170955E-03  1.498754109865E-03  1.333309239642E-03
  1.184637443490E-03  1.051202904484E-03  9.315939874902E-04  8.245146335623E-04
  7.287762456901E-04  6.432900446799E-04  5.670598740816E-04  4.991754334254E-04
  4.388059195269E-04  3.851940562335E-04  3.376504936665E-04  2.955485587484E-04
  2.583193395472E-04  2.254470867170E-04  1.964649160355E-04  1.709507967358E-04
  1.485238109853E-04  1.288406704800E-04  1.115924766993E-04  9.650171189674E-05
  8.331944840388E-05  7.182276428460E-05  6.181235381575E-05  5.311032168171E-05
  4.555815016522E-05  3.901482899655E-05  3.335513789482E-05  2.846807219833E-05
  2.425540234166E-05  2.063035829637E-05  1.751643045052E-05  1.484627876199E-05
  1.256074238069E-05  1.060794229639E-05  8.942469930196E-06  7.524654948720E-06
  6.319905939213E-06  5.298117940222E-06  4.433141174269E-06  3.702305675351E-06
  3.085996843263E-06  2.567277287671E-06  2.131550646114E-06  1.766263370866E-06
  1.460640778598E-06  1.205453943483E-06  9.928142880195E-07  8.159929858827E-07
  6.692625373597E-07  5.477581099923E-07  4.473564550619E-07  3.645704144565E-07
  2.964572225009E-07  2.405389837740E-07  1.947338711657E-07  1.572967388768E-07
  1.267679832568E-07  1.019296108594E-07  8.176758846887E-08  6.543965473136E-08
  5.224786804840E-08  4.161525119863E-08  3.306597038386E-08  2.620855568218E-08
  2.072173184942E-08  1.634248363758E-08  1.285602887147E-08  1.008741598908E-08
  7.894501127558E-09  6.162093614637E-09  4.797088361855E-09  3.724429578531E-09
  2.883772828243E-09  2.226732096355E-09  1.714615561251E-09  1.316568467435E-09
  1.008054161509E-09  7.696152218955E-10  5.858659145212E-10  4.446751407583E-10
  3.365057903361E-10  2.538821301727E-10  1.909616913963E-10  1.431921856559E-10
  1.070373974507E-10  7.975885716428E-11  5.924248302809E-11  4.386136154101E-11
  3.236747737851E-11  2.380655925135E-11  1.745132361789E-11  1.274931298583E-11
  9.282273271570E-12  6.734623729791E-12  4.869067318335E-12  3.507789211833E-12
  2.518013440584E-12  1.800946433699E-12  1.283343332478E-12  9.110980408496E-13
  6.443891215499E-13  4.540174264907E-13  3.186531675202E-13  2.227743918044E-13
  1.551290992536E-13  1.075924186354E-13  7.432067262523E-14  5.112767753891E-14
  3.502673254655E-14  2.389564224962E-14  1.623272534902E-14  1.097983187364E-14
  7.394504066720E-15  4.958026491363E-15  3.309574234967E-15  2.199255380577E-15
  1.454775358019E-15  9.578756667878E-16  6.277564409936E-16  4.094658076198E-16
  2.658054100657E-16  1.717135835330E-16  1.103861910337E-16  7.061034233671E-17
  4.494062753492E-17  2.845774228710E-17  1.792771207732E-17  1.123528435631E-17
  6.015353793633E-18  3.737426973979E-18  0.000000000000E+00  0.000000000000E+00
  0.000000000000E+00  0.000000000000E+00  0.000000000000E+00  0.000000000000E+00
  0.000000000000E+00  0.000000000000E+00  0.000000000000E+00  0.000000000000E+00
  0.000000000000E+00  0.000000000000E+00  0.000000000000E+00  0.000000000000E+00
  0.000000000000E+00  0.000000000000E+00  0.000000000000E+00  0.000000000000E+00
  0.000000000000E+00  0.000000000000E+00  0.000000000000E+00  0.000000000000E+00
  0.000000000000E+00  0.000000000000E+00  0.000000000000E+00  0.000000000000E+00
  0.000000000000E+00  0.000000000000E+00  0.000000000000E+00  0.000000000000E+00
  0.000000000000E+00  0.000000000000E+00  0.000000000000E+00  0.000000000000E+00
  0.000000000000E+00  0.000000000000E+00  0.000000000000E+00  0.000000000000E+00
  0.000000000000E+00  0.000000000000E+00  0.000000000000E+00  0.000000000000E+00
  0.000000000000E+00  0.000000000000E+00  0.000000000000E+00  0.000000000000E+00
  0.000000000000E+00
</data>
</radfunc>
</valence-charge>
<pseudocore-charge matching-radius="0.641212807605"
 number-of-continuous-derivatives="4">
<annotation model-charge-form="Teter function with specified parameters" />
<radfunc>
<data npts="290">
  1.051415004667E+02  1.051323253344E+02  1.051048989793E+02  1.050591463986E+02
  1.049955429264E+02  1.049119257511E+02  1.048053807895E+02  1.046834106520E+02
  1.045463104186E+02  1.043864861792E+02  1.042064096080E+02  1.040107661859E+02
  1.037744416329E+02  1.035277674094E+02  1.032369669026E+02  1.029467538838E+02
  1.026128279564E+02  1.022965615465E+02  1.019413203133E+02  1.015424568442E+02
  1.010948113623E+02  1.006977498479E+02  1.002626173109E+02  9.978594863361E+01
  9.926400215375E+01  9.869274595871E+01  9.806784548290E+01  9.756118219316E+01
  9.701965726029E+01  9.644108889861E+01  9.582319214204E+01  9.516357939034E+01
  9.445976206863E+01  9.370915360527E+01  9.290907395870E+01  9.205675594976E+01
  9.114935368382E+01  9.018395337542E+01  8.950666805730E+01  8.880139793359E+01
  8.806724855406E+01  8.730332344276E+01  8.650872735755E+01  8.568256993195E+01
  8.482396972508E+01  8.393205870599E+01  8.300598719819E+01  8.204492930984E+01
  8.104808887408E+01  8.001470592250E+01  7.894406371262E+01  7.783549632782E+01
  7.668839686406E+01  7.550222621412E+01  7.427652245388E+01  7.301091082930E+01
  7.170511433462E+01  7.035896486341E+01  6.897241490334E+01  6.754554973349E+01
  6.607860006922E+01  6.457195508357E+01  6.302617571712E+01  6.144200816838E+01
  5.982039743565E+01  5.816250075795E+01  5.646970077780E+01  5.561070889300E+01
  5.474361822181E+01  5.386867051981E+01  5.298612386767E+01  5.209625298745E+01
  5.119934953687E+01  5.029572237887E+01  4.938569782391E+01  4.846961984228E+01
  4.754785024339E+01  4.662076881926E+01  4.568877344905E+01  4.475228016161E+01
  4.381172315269E+01  4.286755475370E+01  4.192024534865E+01  4.097028323593E+01
  4.001817443153E+01  3.906444241046E+01  3.810962778291E+01  3.715428790190E+01
  3.619899639927E+01  3.524434264674E+01  3.429093113916E+01  3.333938079704E+01
  3.239032418567E+01  3.144440664851E+01  3.050228535252E+01  2.956462824366E+01
  2.863211291094E+01  2.770542535798E+01  2.678525868126E+01  2.587231165484E+01
  2.496728722190E+01  2.407089089382E+01  2.318382905843E+01  2.230680719942E+01
  2.144052802987E+01  2.058568954354E+01  1.974298298815E+01  1.891309076623E+01
  1.809668426940E+01  1.729442165336E+01  1.650694556148E+01  1.573488080612E+01
  1.497883201746E+01  1.423938127106E+01  1.351708570587E+01  1.281247514578E+01
  1.212604973854E+01  1.145827762681E+01  1.080959266713E+01  1.018039221312E+01
  9.571034980195E+00  8.981839009498E+00  8.413079749469E+00  7.864988273583E+00
  7.337749653230E+00  6.831501504614E+00  6.346332728481E+00  5.882282461108E+00
  5.439339254417E+00  5.017440502278E+00  4.616472129008E+00  4.236268554725E+00
  3.876612950669E+00  3.537237795659E+00  3.217825742781E+00  2.918010802884E+00
  2.637379848855E+00  2.375474441520E+00  2.131792975070E+00  1.905793136181E+00
  1.696894667616E+00  1.504482423241E+00  1.327909697506E+00  1.166501808568E+00
  1.019559910252E+00  8.863650042183E-01  7.661821199730E-01  6.582646268177E-01
  5.618586386199E-01  4.762074694019E-01  4.005560953228E-01  3.341555767345E-01
  2.762673926974E-01  2.261676397285E-01  1.831510466866E-01  1.465347586298E-01
  1.156618442532E-01  8.990448416614E-02  6.866680079325E-02  5.138729509326E-02
  3.754086053514E-02  2.664035081098E-02  1.823768451337E-02  1.192447736104E-02
  7.332200389564E-03  4.131870682271E-03  2.033289524815E-03  7.838511327418E-04
  1.669531164616E-04  4.739563327392E-08  1.323771345529E-04  4.424512251917E-04
  8.353126900167E-04  1.239660927381E-03  1.604889821083E-03  1.898104262231E-03
  2.101176509805E-03  2.207901021632E-03  2.221301951975E-03  2.151141528328E-03
  2.011670142889E-03  1.819650438767E-03  1.592678209354E-03  1.347812882348E-03
  1.100520088008E-03  8.639186998688E-04  6.483151806764E-04  4.609994534345E-04
  3.062692062166E-04  1.856438410221E-04  9.822543642682E-05  4.116227250000E-05
  1.017072892922E-05  7.367191033693E-08  5.317641112822E-06  2.043697758212E-05
  4.044014331173E-05  6.110144101729E-05  7.914966093165E-05  9.235334714958E-05
  9.950988387089E-05  1.003519894294E-04  9.539008815736E-05  8.571212986861E-05
  7.276359926653E-05  5.812970542195E-05  4.333921817047E-05  2.970541942042E-05
  1.821457855554E-05  9.466743953492E-06  3.668010827026E-06  6.683147781297E-07
  3.468636530864E-08  1.147152130660E-06  3.303301958233E-06  5.818008732717E-06
  8.106751604897E-06  9.744159490866E-06  1.049332376899E-05  1.030561242112E-05
  9.294615861569E-06  7.690978987444E-06  5.786848218823E-06  3.879273694632E-06
  2.221136730082E-06  9.862005654277E-07  2.520607100190E-07  1.572918776562E-09
  0.000000000000E+00  0.000000000000E+00  0.000000000000E+00  0.000000000000E+00
  0.000000000000E+00  0.000000000000E+00  0.000000000000E+00  0.000000000000E+00
  0.000000000000E+00  0.000000000000E+00  0.000000000000E+00  0.000000000000E+00
  0.000000000000E+00  0.000000000000E+00  0.000000000000E+00  0.000000000000E+00
  0.000000000000E+00  0.000000000000E+00  0.000000000000E+00  0.000000000000E+00
  0.000000000000E+00  0.000000000000E+00  0.000000000000E+00  0.000000000000E+00
  0.000000000000E+00  0.000000000000E+00  0.000000000000E+00  0.000000000000E+00
  0.000000000000E+00  0.000000000000E+00  0.000000000000E+00  0.000000000000E+00
  0.000000000000E+00  0.000000000000E+00  0.000000000000E+00  0.000000000000E+00
  0.000000000000E+00  0.000000000000E+00  0.000000000000E+00  0.000000000000E+00
  0.000000000000E+00  0.000000000000E+00  0.000000000000E+00  0.000000000000E+00
  0.000000000000E+00  0.000000000000E+00  0.000000000000E+00  0.000000000000E+00
  0.000000000000E+00  0.000000000000E+00  0.000000000000E+00  0.000000000000E+00
  0.000000000000E+00  0.000000000000E+00  0.000000000000E+00  0.000000000000E+00
  0.000000000000E+00  0.000000000000E+00  0.000000000000E+00  0.000000000000E+00
  0.000000000000E+00  0.000000000000E+00
</data>
</radfunc>
</pseudocore-charge>
<semilocal-potentials set="scalar_relativistic">
<slps n="4" l="s" rc="1.81011753795">
<radfunc>
<data npts="290">
  4.117671224161E+01  4.114599081064E+01  4.105432473965E+01  4.090196197266E+01
  4.069129692545E+01  4.041634826703E+01  4.006926760440E+01  3.967635242284E+01
  3.924022271908E+01  3.873903920687E+01  3.818346460687E+01  3.759053415940E+01
  3.688870763833E+01  3.617241753650E+01  3.534858615739E+01  3.454780525079E+01
  3.365176732710E+01  3.282710605238E+01  3.192744123576E+01  3.094934629641E+01
  2.988998021732E+01  2.898254058511E+01  2.802108757028E+01  2.700541308864E+01
  2.593580313145E+01  2.481308815948E+01  2.363868624242E+01  2.272516779348E+01
  2.178480577690E+01  2.081890219050E+01  1.982896350239E+01  1.881669665866E+01
  1.778400187579E+01  1.673296217118E+01  1.566582967808E+01  1.458500889022E+01
  1.349303708176E+01  1.239256224625E+01  1.165553607571E+01  1.091677129988E+01
  1.017710287632E+01  9.437370777931E+00  8.698416433213E+00  7.961079191122E+00
  7.226192847467E+00  6.494582268984E+00  5.767060149677E+00  5.044423931976E+00
  4.327452922643E+00  3.616905630315E+00  2.913517348123E+00  2.217998001080E+00
  1.531030274020E+00  8.532680318901E-01  1.853350402327E-01 -4.721760100823E-01
 -1.118704173327E+00 -1.753720617243E+00 -2.376728694614E+00 -2.987263725868E+00
 -3.584892502393E+00 -4.169212521990E+00 -4.739850969365E+00 -5.296463456195E+00
 -5.838732537203E+00 -6.366366021081E+00 -6.879095098292E+00 -7.129792378186E+00
 -7.376672311637E+00 -7.619706948958E+00 -7.858869400196E+00 -8.094133763406E+00
 -8.325475052501E+00 -8.552869125050E+00 -8.776292610450E+00 -8.995722838873E+00
 -9.211137771472E+00 -9.422515932325E+00 -9.629836342637E+00 -9.833078457739E+00
 -1.003222210755E+01 -1.022724744102E+01 -1.041813487548E+01 -1.060486505140E+01
 -1.078741879367E+01 -1.096577708021E+01 -1.113992101893E+01 -1.130983183421E+01
 -1.147549086418E+01 -1.163687956997E+01 -1.179397955839E+01 -1.194677261943E+01
 -1.209524078007E+01 -1.223936637562E+01 -1.237913214004E+01 -1.251452131616E+01
 -1.264551778676E+01 -1.277210622680E+01 -1.289427227691E+01 -1.301200273755E+01
 -1.312528578250E+01 -1.323411118991E+01 -1.333847058813E+01 -1.343835771282E+01
 -1.353376867130E+01 -1.362470220908E+01 -1.371115997354E+01 -1.379314676873E+01
 -1.387067079588E+01 -1.394374387369E+01 -1.401238163345E+01 -1.407660368431E+01
 -1.413643374519E+01 -1.419189974077E+01 -1.424303386013E+01 -1.428987257792E+01
 -1.433245663896E+01 -1.437083100786E+01 -1.440504478612E+01 -1.443515109910E+01
 -1.446120695525E+01 -1.448327307914E+01 -1.450141371893E+01 -1.451569642729E+01
 -1.452619181328E+01 -1.453297326027E+01 -1.453611660352E+01 -1.453569975833E+01
 -1.453180228846E+01 -1.452450490257E+01 -1.451388886579E+01 -1.450003531341E+01
 -1.448302445479E+01 -1.446293465821E+01 -1.443984141191E+01 -1.441381616415E+01
 -1.438492505424E+01 -1.435322756245E+01 -1.431877512113E+01 -1.428160975421E+01
 -1.424176283371E+01 -1.419925406864E+01 -1.415409086399E+01 -1.410626820413E+01
 -1.405576921864E+01 -1.400256657347E+01 -1.394662479078E+01 -1.388790353234E+01
 -1.382636178450E+01 -1.376196276048E+01 -1.369467919769E+01 -1.362449858312E+01
 -1.355142770126E+01 -1.347549577432E+01 -1.339675536378E+01 -1.331528014051E+01