Br    ONCVPSP-3.3.0  r_core=   1.81012   1.51356   1.92136
35.0000     17.0000      180506    zatom,zion,pspd
8      11   2     4   600     0    pspcod,pspxc,lmax,lloc,mmax,r2well
5.99000000  3.50000000  0.00000000    rchrg fchrg qchrg
2     3     2     0    nproj
3     1           extension_switch
4     3     0    nprojso
0                         8.8544623745557D-01  8.4793786034204D+00
1  0.0000000000000D+00 -1.5221421345579D-11  2.7503221922132D-11
2  1.0000000000000D-02 -1.3182221407448D-02  3.6651373695583D-02
3  2.0000000000000D-02 -2.6368577591312D-02  7.3294688843416D-02
4  3.0000000000000D-02 -3.9562979290514D-02  1.0992173186499D-01
5  4.0000000000000D-02 -5.2768890471151D-02  1.4652398026995D-01
6  5.0000000000000D-02 -6.5989108191719D-02  1.8309245106739D-01
7  6.0000000000000D-02 -7.9225546359798D-02  2.1961755259833D-01
8  7.0000000000000D-02 -9.2479024659775D-02  2.5608894089741D-01
9  8.0000000000000D-02 -1.0574906391598D-01  2.9249538166433D-01
10  9.0000000000000D-02 -1.1903368913657D-01  3.2882461889150D-01
11  1.0000000000000D-01 -1.3232924146014D-01  3.6506325115397D-01
12  1.1000000000000D-01 -1.4563020020017D-01  4.0119661652099D-01
13  1.2000000000000D-01 -1.5892901615039D-01  4.3720868699618D-01
14  1.3000000000000D-01 -1.7221595727871D-01  4.7308197333514D-01
15  1.4000000000000D-01 -1.8547896789680D-01  5.0879744102621D-01
16  1.5000000000000D-01 -1.9870354234744D-01  5.4433443815157D-01
17  1.6000000000000D-01 -2.1187261420225D-01  5.7967063577365D-01
18  1.7000000000000D-01 -2.2496646190773D-01  6.1478198141477D-01
19  1.8000000000000D-01 -2.3796263175825D-01  6.4964266611770D-01
20  1.9000000000000D-01 -2.5083587900998D-01  6.8422510549138D-01
21  2.0000000000000D-01 -2.6355812788067D-01  7.1849993505989D-01
22  2.1000000000000D-01 -2.7609845110511D-01  7.5243602014442D-01
23  2.2000000000000D-01 -2.8842306963660D-01  7.8600048041808D-01
24  2.3000000000000D-01 -3.0049537300023D-01  8.1915872918229D-01
25  2.4000000000000D-01 -3.1227596071334D-01  8.5187452732184D-01
26  2.5000000000000D-01 -3.2372270509462D-01  8.8411005180428D-01
27  2.6000000000000D-01 -3.3479083568320D-01  9.1582597849755D-01
28  2.7000000000000D-01 -3.4543304538557D-01  9.4698157899043D-01
29  2.8000000000000D-01 -3.5559961835949D-01  9.7753483101099D-01
30  2.9000000000000D-01 -3.6523857953228D-01  1.0074425419525D+00
31  3.0000000000000D-01 -3.7429586553431D-01  1.0366604849321D+00
32  3.1000000000000D-01 -3.8271551671006D-01  1.0651435467266D+00
33  3.2000000000000D-01 -3.9043988974671D-01  1.0928458868532D+00
34  3.3000000000000D-01 -3.9740989033637D-01  1.1197211069904D+00
35  3.4000000000000D-01 -4.0356522516210D-01  1.1457224298634D+00
36  3.5000000000000D-01 -4.0884467237116D-01  1.1708028866584D+00
37  3.6000000000000D-01 -4.1318636957172D-01  1.1949155119700D+00
38  3.7000000000000D-01 -4.1652811826232D-01  1.2180135452327D+00
39  3.8000000000000D-01 -4.1880770347784D-01  1.2400506375421D+00
40  3.9000000000000D-01 -4.1996322731189D-01  1.2609810627329D+00
41  4.0000000000000D-01 -4.1993345485459D-01  1.2807599315432D+00
42  4.1000000000000D-01 -4.1865817096759D-01  1.2993434076713D+00
43  4.2000000000000D-01 -4.1607854620509D-01  1.3166889245101D+00
44  4.3000000000000D-01 -4.1213751008269D-01  1.3327554013312D+00
45  4.4000000000000D-01 -4.0678012979499D-01  1.3475034576865D+00
46  4.5000000000000D-01 -3.9995399238917D-01  1.3608956247947D+00
47  4.6000000000000D-01 -3.9160958831671D-01  1.3728965526910D+00
48  4.7000000000000D-01 -3.8170069420909D-01  1.3834732119344D+00
49  4.8000000000000D-01 -3.7018475265734D-01  1.3925950886882D+00
50  4.9000000000000D-01 -3.5702324672025D-01  1.4002343720227D+00
51  5.0000000000000D-01 -3.4218206684224D-01  1.4063661323238D+00
52  5.1000000000000D-01 -3.2563186783136D-01  1.4109684897350D+00
53  5.2000000000000D-01 -3.0734841352970D-01  1.4140227716139D+00
54  5.3000000000000D-01 -2.8731290680486D-01  1.4155136580342D+00
55  5.4000000000000D-01 -2.6551230250149D-01  1.4154293144330D+00
56  5.5000000000000D-01 -2.4193960101741D-01  1.4137615105657D+00
57  5.6000000000000D-01 -2.1659412020924D-01  1.4105057250047D+00
58  5.7000000000000D-01 -1.8948174338947D-01  1.4056612344961D+00
59  5.8000000000000D-01 -1.6061514124816D-01  1.3992311875674D+00
60  5.9000000000000D-01 -1.3001396562158D-01  1.3912226618667D+00
61  6.0000000000000D-01 -9.7705013133197D-02  1.3816467047970D+00
62  6.1000000000000D-01 -6.3722356852865D-02  1.3705183571062D+00
63  6.2000000000000D-01 -2.8107444254921D-02  1.3578566591782D+00
64  6.3000000000000D-01  9.0908400932520D-03  1.3436846398711D+00
65  6.4000000000000D-01  4.7816148515971D-02  1.3280292878387D+00
66  6.5000000000000D-01  8.8004682111904D-02  1.3109215053679D+00
67  6.6000000000000D-01  1.2958524156659D-01  1.2923960448608D+00
68  6.7000000000000D-01  1.7247931772268D-01  1.2724914281832D+00
69  6.8000000000000D-01  2.1660122251944D-01  1.2512498491932D+00
70  6.9000000000000D-01  2.6185826068697D-01  1.2287170598558D+00
71  7.0000000000000D-01  3.0815094234482D-01  1.2049422404383D+00
72  7.1000000000000D-01  3.5537323641293D-01  1.1799778543645D+00
73  7.2000000000000D-01  4.0341286449255D-01  1.1538794883892D+00
74  7.3000000000000D-01  4.5215163462178D-01  1.1267056788335D+00
75  7.4000000000000D-01  5.0146581405279D-01  1.0985177246918D+00
76  7.5000000000000D-01  5.5122653994042D-01  1.0693794884944D+00
77  7.6000000000000D-01  6.0130026657288D-01  1.0393571858685D+00
78  7.7000000000000D-01  6.5154924752046D-01  1.0085191648033D+00
79  7.8000000000000D-01  7.0183205082566D-01  9.7693567567215D-01
80  7.9000000000000D-01  7.5200410511198D-01  9.4467863311464D-01
81  8.0000000000000D-01  8.0191827425085D-01  9.1182137091783D-01
82  8.1000000000000D-01  8.5142545799676D-01  8.7843839107089D-01
83  8.2000000000000D-01  9.0037521578314D-01  8.4460510819206D-01
84  8.3000000000000D-01  9.4861641066719D-01  8.1039759054660D-01
85  8.4000000000000D-01  9.9599787022222D-01  7.7589229888641D-01
86  8.5000000000000D-01  1.0423690610027D+00  7.4116582434709D-01
87  8.6000000000000D-01  1.0875807730524D+00  7.0629462663671D-01
88  8.7000000000000D-01  1.1314858107911D+00  6.7135477374161D-01
89  8.8000000000000D-01  1.1739396864993D+00  6.3642168435924D-01
90  8.9000000000000D-01  1.2148013125305D+00  6.0156987424585D-01
91  9.0000000000000D-01  1.2539336883095D+00  5.6687270763866D-01
92  9.1000000000000D-01  1.2912045781324D+00  5.3240215487691D-01
93  9.2000000000000D-01  1.3264871757628D+00  4.9822855730602D-01
94  9.3000000000000D-01  1.3596607518282D+00  4.6442040050247D-01
95  9.4000000000000D-01  1.3906112800487D+00  4.3104409680579D-01
96  9.5000000000000D-01  1.4192320383935D+00  3.9816377808735D-01
97  9.6000000000000D-01  1.4454241813448D+00  3.6584109962470D-01
98  9.7000000000000D-01  1.4690972795604D+00  3.3413505588505D-01
99  9.8000000000000D-01  1.4901698233652D+00  3.0310180895363D-01
100  9.9000000000000D-01  1.5085696866671D+00  2.7279453026926D-01
101  1.0000000000000D+00  1.5242345480804D+00  2.4326325625624D-01
102  1.0100000000000D+00  1.5371122662535D+00  2.1455475836405D-01
103  1.0200000000000D+00  1.5471612066337D+00  1.8671242794854D-01
104  1.0300000000000D+00  1.5543505171626D+00  1.5977617634705D-01
105  1.0400000000000D+00  1.5586603506682D+00  1.3378235042151D-01
106  1.0500000000000D+00  1.5600820320160D+00  1.0876366376221D-01
107  1.0600000000000D+00  1.5586181684039D+00  8.4749143662769D-02
108  1.0700000000000D+00  1.5542827015014D+00  6.1764093899553D-02
109  1.0800000000000D+00  1.5471009004844D+00  3.9830073268266D-02
110  1.0900000000000D+00  1.5371092953641D+00  1.8964889754592D-02
111  1.1000000000000D+00  1.5243555503498D+00 -8.1738985593737D-04
112  1.1100000000000D+00  1.5088982773851D+00 -1.9506415203087D-02
113  1.1200000000000D+00  1.4908067903295D+00 -3.7095512748246D-02
114  1.1300000000000D+00  1.4701608006728D+00 -5.3581631752607D-02
115  1.1400000000000D+00  1.4470500559377D+00 -6.8965276294686D-02
116  1.1500000000000D+00  1.4215739224104D+00 -8.3250423863549D-02
117  1.1600000000000D+00  1.3938409141055D+00 -9.6444431103736D-02
118  1.1700000000000D+00  1.3639681702700D+00 -1.0855792734632D-01
119  1.1800000000000D+00  1.3320808839675D+00 -1.1960469659385D-01
120  1.1900000000000D+00  1.2983116847288D+00 -1.2960154868487D-01
121  1.2000000000000D+00  1.2627999784784D+00 -1.3856818038775D-01
122  1.2100000000000D+00  1.2256912482019D+00 -1.4652702720359D-01
123  1.2200000000000D+00  1.1871363191189D+00 -1.5350310668914D-01
124  1.2300000000000D+00  1.1472905923703D+00 -1.5952385413074D-01
125  1.2400000000000D+00  1.1063132513937D+00 -1.6461895141048D-01
126  1.2500000000000D+00  1.0643664453259D+00 -1.6882014992060D-01
127  1.2600000000000D+00  1.0216144540062D+00 -1.7216108838890D-01
128  1.2700000000000D+00  9.7822283918483D-01 -1.7467710647040D-01
129  1.2800000000000D+00  9.3435758665024D-01 -1.7640505496902D-01
130  1.2900000000000D+00  8.9018424409891D-01 -1.7738310353390D-01
131  1.3000000000000D+00  8.4586705949721D-01 -1.7765054665847D-01
132  1.3100000000000D+00  8.0156812478527D-01 -1.7724760881671D-01
133  1.3200000000000D+00  7.5744652964552D-01 -1.7621524951675D-01
134  1.3300000000000D+00  7.1365752997643D-01 -1.7459496904391D-01
135  1.3400000000000D+00  6.7035173576252D-01 -1.7242861565768D-01
136  1.3500000000000D+00  6.2767432260643D-01 -1.6975819492101D-01
137  1.3600000000000D+00  5.8576427129047D-01 -1.6662568186471D-01
138  1.3700000000000D+00  5.4475363949964D-01 -1.6307283663322D-01
139  1.3800000000000D+00  5.0476686922870D-01 -1.5914102416851D-01
140  1.3900000000000D+00  4.6592013393035D-01 -1.5487103856660D-01
141  1.4000000000000D+00  4.2832072830137D-01 -1.5030293256176D-01
142  1.4100000000000D+00  3.9206650379964D-01 -1.4547585263421D-01
143  1.4200000000000D+00  3.5724535292400D-01 -1.4042788021358D-01
144  1.4300000000000D+00  3.2393474387778D-01 -1.3519587927467D-01
145  1.4400000000000D+00  2.9220130850731D-01 -1.2981535078032D-01
146  1.4500000000000D+00  2.6210048440330D-01 -1.2432029417430D-01
147  1.4600000000000D+00  2.3367621271331D-01 -1.1874307621789D-01
148  1.4700000000000D+00  2.0696068867634D-01 -1.1311430663385D-01
149  1.4800000000000D+00  1.8197418384396D-01 -1.0746272410961D-01
150  1.4900000000000D+00  1.5872489909160D-01 -1.0181508554974D-01
151  1.5000000000000D+00  1.3720903222970D-01 -9.6196092437998D-02
152  1.5100000000000D+00  1.1741027742687D-01 -9.0628208308354D-02
153  1.5200000000000D+00  9.9300376396492D-02 -8.5131671524555D-02
154  1.5300000000000D+00  8.2840817307258D-02 -7.9724711279220D-02
155  1.5400000000000D+00  6.7984334550838D-02 -7.4423757444821D-02
156  1.5500000000000D+00  5.4676954266740D-02 -6.9243767165796D-02
157  1.5600000000000D+00  4.2858510441264D-02 -6.4198272352591D-02
158  1.5700000000000D+00  3.2462846498347D-02 -5.9299378764151D-02
159  1.5800000000000D+00  2.3418642025392D-02 -5.4557868830758D-02
160  1.5900000000000D+00  1.5649964651480D-02 -4.9983257785261D-02
161  1.6000000000000D+00  9.0769472184934D-03 -4.5583870875057D-02
162  1.6100000000000D+00  3.6164528333277D-03 -4.1366918093640D-02
163  1.6200000000000D+00 -8.1724206417177D-04 -3.7338571775258D-02
164  1.6300000000000D+00 -4.3117567203010D-03 -3.3504045511199D-02
165  1.6400000000000D+00 -6.9559121585202D-03 -2.9867673613126D-02
166  1.6500000000000D+00 -8.8390392829818D-03 -2.6432990494397D-02
167  1.6600000000000D+00 -1.0050293853213D-02 -2.3202809265141D-02
168  1.6700000000000D+00 -1.0677983186288D-02 -2.0179298931933D-02
169  1.6800000000000D+00 -1.0808909159511D-02 -1.7364059578948D-02
170  1.6900000000000D+00 -1.0527732251944D-02 -1.4758194948094D-02
171  1.7000000000000D+00 -9.9163608054015D-03 -1.2362381874296D-02
172  1.7100000000000D+00 -9.0533699718101D-03 -1.0176936043169D-02
173  1.7200000000000D+00 -8.0134541480836D-03 -8.2018735907528D-03
174  1.7300000000000D+00 -6.8669168005226D-03 -6.4369680974054D-03
175  1.7400000000000D+00 -5.6792012884525D-03 -4.8818025276564D-03
176  1.7500000000000D+00 -4.5116218011377D-03 -3.5360989849913D-03
177  1.7600000000000D+00 -3.4175446351242D-03 -2.3989167066908D-03
178  1.7700000000000D+00 -2.4358807463094D-03 -1.4678693426185D-03
179  1.7800000000000D+00 -1.6141515790460D-03 -7.4340481631212D-04
180  1.7900000000000D+00 -1.0351184188920D-03 -2.2970076726220D-04
181  1.8000000000000D+00 -7.2266764060184D-04  7.7618473219304D-05
182  1.8100000000000D+00 -5.1733457525796D-04  1.8772449581145D-04
183  1.8200000000000D+00 -2.5671480810123D-04  1.2785694094436D-04
184  1.8300000000000D+00 -3.0906995323540D-05  1.7489247248461D-05
185  1.8400000000000D+00  4.5015868250102D-05 -2.6903118584793D-05
186  1.8500000000000D+00  1.8892818454119D-05 -1.1862888146957D-05
187  1.8600000000000D+00 -9.0210427916255D-06  4.8860946735654D-06
188  1.8700000000000D+00 -7.4205105506499D-06  4.1093817719089D-06
189  1.8800000000000D+00  8.5063416601629D-07 -3.1047740185197D-07
190  1.8900000000000D+00  1.3180167604541D-06 -4.8106981324251D-07
191  1.9000000000000D+00  0.0000000000000D+00  0.0000000000000D+00
192  1.9100000000000D+00  0.0000000000000D+00  0.0000000000000D+00
193  1.9200000000000D+00  0.0000000000000D+00  0.0000000000000D+00
194  1.9300000000000D+00  0.0000000000000D+00  0.0000000000000D+00
195  1.9400000000000D+00  0.0000000000000D+00  0.0000000000000D+00
196  1.9500000000000D+00  0.0000000000000D+00  0.0000000000000D+00
197  1.9600000000000D+00  0.0000000000000D+00  0.0000000000000D+00
198  1.9700000000000D+00  0.0000000000000D+00  0.0000000000000D+00
199  1.9800000000000D+00  0.0000000000000D+00  0.0000000000000D+00
200  1.9900000000000D+00  0.0000000000000D+00  0.0000000000000D+00
201  2.0000000000000D+00  0.0000000000000D+00  0.0000000000000D+00
202  2.0100000000000D+00  0.0000000000000D+00  0.0000000000000D+00
203  2.0200000000000D+00  0.0000000000000D+00  0.0000000000000D+00
204  2.0300000000000D+00  0.0000000000000D+00  0.0000000000000D+00
205  2.0400000000000D+00  0.0000000000000D+00  0.0000000000000D+00
206  2.0500000000000D+00  0.0000000000000D+00  0.0000000000000D+00
207  2.0600000000000D+00  0.0000000000000D+00  0.0000000000000D+00
208  2.0700000000000D+00  0.0000000000000D+00  0.0000000000000D+00
209  2.0800000000000D+00  0.0000000000000D+00  0.0000000000000D+00
210  2.0900000000000D+00  0.0000000000000D+00  0.0000000000000D+00
211  2.1000000000000D+00  0.0000000000000D+00  0.0000000000000D+00
212  2.1100000000000D+00  0.0000000000000D+00  0.0000000000000D+00
213  2.1200000000000D+00  0.0000000000000D+00  0.0000000000000D+00
214  2.1300000000000D+00  0.0000000000000D+00  0.0000000000000D+00
215  2.1400000000000D+00  0.0000000000000D+00  0.0000000000000D+00
216  2.1500000000000D+00  0.0000000000000D+00  0.0000000000000D+00
217  2.1600000000000D+00  0.0000000000000D+00  0.0000000000000D+00
218  2.1700000000000D+00  0.0000000000000D+00  0.0000000000000D+00
219  2.1800000000000D+00  0.0000000000000D+00  0.0000000000000D+00
220  2.1900000000000D+00  0.0000000000000D+00  0.0000000000000D+00
221  2.2000000000000D+00  0.0000000000000D+00  0.0000000000000D+00
222  2.2100000000000D+00  0.0000000000000D+00  0.0000000000000D+00
223  2.2200000000000D+00  0.0000000000000D+00  0.0000000000000D+00
224  2.2300000000000D+00  0.0000000000000D+00  0.0000000000000D+00
225  2.2400000000000D+00  0.0000000000000D+00  0.0000000000000D+00
226  2.2500000000000D+00  0.0000000000000D+00  0.0000000000000D+00
227  2.2600000000000D+00  0.0000000000000D+00  0.0000000000000D+00
228  2.2700000000000D+00  0.0000000000000D+00  0.0000000000000D+00
229  2.2800000000000D+00  0.0000000000000D+00  0.0000000000000D+00
230  2.2900000000000D+00  0.0000000000000D+00  0.0000000000000D+00
231  2.3000000000000D+00  0.0000000000000D+00  0.0000000000000D+00
232  2.3100000000000D+00  0.0000000000000D+00  0.0000000000000D+00
233  2.3200000000000D+00  0.0000000000000D+00  0.0000000000000D+00
234  2.3300000000000D+00  0.0000000000000D+00  0.0000000000000D+00
235  2.3400000000000D+00  0.0000000000000D+00  0.0000000000000D+00
236  2.3500000000000D+00  0.0000000000000D+00  0.0000000000000D+00
237  2.3600000000000D+00  0.0000000000000D+00  0.0000000000000D+00
238  2.3700000000000D+00  0.0000000000000D+00  0.0000000000000D+00
239  2.3800000000000D+00  0.0000000000000D+00  0.0000000000000D+00
240  2.3900000000000D+00  0.0000000000000D+00  0.0000000000000D+00
241  2.4000000000000D+00  0.0000000000000D+00  0.0000000000000D+00
242  2.4100000000000D+00  0.0000000000000D+00  0.0000000000000D+00
243  2.4200000000000D+00  0.0000000000000D+00  0.0000000000000D+00
244  2.4300000000000D+00  0.0000000000000D+00  0.0000000000000D+00
245  2.4400000000000D+00  0.0000000000000D+00  0.0000000000000D+00
246  2.4500000000000D+00  0.0000000000000D+00  0.0000000000000D+00
247  2.4600000000000D+00  0.0000000000000D+00  0.0000000000000D+00
248  2.4700000000000D+00  0.0000000000000D+00  0.0000000000000D+00
249  2.4800000000000D+00  0.0000000000000D+00  0.0000000000000D+00
250  2.4900000000000D+00  0.0000000000000D+00  0.0000000000000D+00
251  2.5000000000000D+00  0.0000000000000D+00  0.0000000000000D+00
252  2.5100000000000D+00  0.0000000000000D+00  0.0000000000000D+00
253  2.5200000000000D+00  0.0000000000000D+00  0.0000000000000D+00
254  2.5300000000000D+00  0.0000000000000D+00  0.0000000000000D+00
255  2.5400000000000D+00  0.0000000000000D+00  0.0000000000000D+00
256  2.5500000000000D+00  0.0000000000000D+00  0.0000000000000D+00
257  2.5600000000000D+00  0.0000000000000D+00  0.0000000000000D+00
258  2.5700000000000D+00  0.0000000000000D+00  0.0000000000000D+00
259  2.5800000000000D+00  0.0000000000000D+00  0.0000000000000D+00
260  2.5900000000000D+00  0.0000000000000D+00  0.0000000000000D+00
261  2.6000000000000D+00  0.0000000000000D+00  0.0000000000000D+00
262  2.6100000000000D+00  0.0000000000000D+00  0.0000000000000D+00
263  2.6200000000000D+00  0.0000000000000D+00  0.0000000000000D+00
264  2.6300000000000D+00  0.0000000000000D+00  0.0000000000000D+00
265  2.6400000000000D+00  0.0000000000000D+00  0.0000000000000D+00
266  2.6500000000000D+00  0.0000000000000D+00  0.0000000000000D+00
267  2.6600000000000D+00  0.0000000000000D+00  0.0000000000000D+00
268  2.6700000000000D+00  0.0000000000000D+00  0.0000000000000D+00
269  2.6800000000000D+00  0.0000000000000D+00  0.0000000000000D+00
270  2.6900000000000D+00  0.0000000000000D+00  0.0000000000000D+00
271  2.7000000000000D+00  0.0000000000000D+00  0.0000000000000D+00
272  2.7100000000000D+00  0.0000000000000D+00  0.0000000000000D+00
273  2.7200000000000D+00  0.0000000000000D+00  0.0000000000000D+00
274  2.7300000000000D+00  0.0000000000000D+00  0.0000000000000D+00
275  2.7400000000000D+00  0.0000000000000D+00  0.0000000000000D+00
276  2.7500000000000D+00  0.0000000000000D+00  0.0000000000000D+00
277  2.7600000000000D+00  0.0000000000000D+00  0.0000000000000D+00
278  2.7700000000000D+00  0.0000000000000D+00  0.0000000000000D+00
279  2.7800000000000D+00  0.0000000000000D+00  0.0000000000000D+00
280  2.7900000000000D+00  0.0000000000000D+00  0.0000000000000D+00
281  2.8000000000000D+00  0.0000000000000D+00  0.0000000000000D+00
282  2.8100000000000D+00  0.0000000000000D+00  0.0000000000000D+00
283  2.8200000000000D+00  0.0000000000000D+00  0.0000000000000D+00
284  2.8300000000000D+00  0.0000000000000D+00  0.0000000000000D+00
285  2.8400000000000D+00  0.0000000000000D+00  0.0000000000000D+00
286  2.8500000000000D+00  0.0000000000000D+00  0.0000000000000D+00
287  2.8600000000000D+00  0.0000000000000D+00  0.0000000000000D+00
288  2.8700000000000D+00  0.0000000000000D+00  0.0000000000000D+00
289  2.8800000000000D+00  0.0000000000000D+00  0.0000000000000D+00
290  2.8900000000000D+00  0.0000000000000D+00  0.0000000000000D+00
291  2.9000000000000D+00  0.0000000000000D+00  0.0000000000000D+00
292  2.9100000000000D+00  0.0000000000000D+00  0.0000000000000D+00
293  2.9200000000000D+00  0.0000000000000D+00  0.0000000000000D+00
294  2.9300000000000D+00  0.0000000000000D+00  0.0000000000000D+00
295  2.9400000000000D+00  0.0000000000000D+00  0.0000000000000D+00
296  2.9500000000000D+00  0.0000000000000D+00  0.0000000000000D+00
297  2.9600000000000D+00  0.0000000000000D+00  0.0000000000000D+00
298  2.9700000000000D+00  0.0000000000000D+00  0.0000000000000D+00
299  2.9800000000000D+00  0.0000000000000D+00  0.0000000000000D+00
300  2.9900000000000D+00  0.0000000000000D+00  0.0000000000000D+00
301  3.0000000000000D+00  0.0000000000000D+00  0.0000000000000D+00
302  3.0100000000000D+00  0.0000000000000D+00  0.0000000000000D+00
303  3.0200000000000D+00  0.0000000000000D+00  0.0000000000000D+00
304  3.0300000000000D+00  0.0000000000000D+00  0.0000000000000D+00
305  3.0400000000000D+00  0.0000000000000D+00  0.0000000000000D+00
306  3.0500000000000D+00  0.0000000000000D+00  0.0000000000000D+00
307  3.0600000000000D+00  0.0000000000000D+00  0.0000000000000D+00
308  3.0700000000000D+00  0.0000000000000D+00  0.0000000000000D+00
309  3.0800000000000D+00  0.0000000000000D+00  0.0000000000000D+00
310  3.0900000000000D+00  0.0000000000000D+00  0.0000000000000D+00
311  3.1000000000000D+00  0.0000000000000D+00  0.0000000000000D+00
312  3.1100000000000D+00  0.0000000000000D+00  0.0000000000000D+00
313  3.1200000000000D+00  0.0000000000000D+00  0.0000000000000D+00
314  3.1300000000000D+00  0.0000000000000D+00  0.0000000000000D+00
315  3.1400000000000D+00  0.0000000000000D+00  0.0000000000000D+00
316  3.1500000000000D+00  0.0000000000000D+00  0.0000000000000D+00
317  3.1600000000000D+00  0.0000000000000D+00  0.0000000000000D+00
318  3.1700000000000D+00  0.0000000000000D+00  0.0000000000000D+00
319  3.1800000000000D+00  0.0000000000000D+00  0.0000000000000D+00
320  3.1900000000000D+00  0.0000000000000D+00  0.0000000000000D+00
321  3.2000000000000D+00  0.0000000000000D+00  0.0000000000000D+00
322  3.2100000000000D+00  0.0000000000000D+00  0.0000000000000D+00
323  3.2200000000000D+00  0.0000000000000D+00  0.0000000000000D+00
324  3.2300000000000D+00  0.0000000000000D+00  0.0000000000000D+00
325  3.2400000000000D+00  0.0000000000000D+00  0.0000000000000D+00
326  3.2500000000000D+00  0.0000000000000D+00  0.0000000000000D+00
327  3.2600000000000D+00  0.0000000000000D+00  0.0000000000000D+00
328  3.2700000000000D+00  0.0000000000000D+00  0.0000000000000D+00
329  3.2800000000000D+00  0.0000000000000D+00  0.0000000000000D+00
330  3.2900000000000D+00  0.0000000000000D+00  0.0000000000000D+00
331  3.3000000000000D+00  0.0000000000000D+00  0.0000000000000D+00
332  3.3100000000000D+00  0.0000000000000D+00  0.0000000000000D+00
333  3.3200000000000D+00  0.0000000000000D+00  0.0000000000000D+00
334  3.3300000000000D+00  0.0000000000000D+00  0.0000000000000D+00
335  3.3400000000000D+00  0.0000000000000D+00  0.0000000000000D+00
336  3.3500000000000D+00  0.0000000000000D+00  0.0000000000000D+00
337  3.3600000000000D+00  0.0000000000000D+00  0.0000000000000D+00
338  3.3700000000000D+00  0.0000000000000D+00  0.0000000000000D+00
339  3.3800000000000D+00  0.0000000000000D+00  0.0000000000000D+00
340  3.3900000000000D+00  0.0000000000000D+00  0.0000000000000D+00
341  3.4000000000000D+00  0.0000000000000D+00  0.0000000000000D+00
342  3.4100000000000D+00  0.0000000000000D+00  0.0000000000000D+00
343  3.4200000000000D+00  0.0000000000000D+00  0.0000000000000D+00
344  3.4300000000000D+00  0.0000000000000D+00  0.0000000000000D+00
345  3.4400000000000D+00  0.0000000000000D+00  0.0000000000000D+00
346  3.4500000000000D+00  0.0000000000000D+00  0.0000000000000D+00
347  3.4600000000000D+00  0.0000000000000D+00  0.0000000000000D+00
348  3.4700000000000D+00  0.0000000000000D+00  0.0000000000000D+00
349  3.4800000000000D+00  0.0000000000000D+00  0.0000000000000D+00
350  3.4900000000000D+00  0.0000000000000D+00  0.0000000000000D+00
351  3.5000000000000D+00  0.0000000000000D+00  0.0000000000000D+00
352  3.5100000000000D+00  0.0000000000000D+00  0.0000000000000D+00
353  3.5200000000000D+00  0.0000000000000D+00  0.0000000000000D+00
354  3.5300000000000D+00  0.0000000000000D+00  0.0000000000000D+00
355  3.5400000000000D+00  0.0000000000000D+00  0.0000000000000D+00
356  3.5500000000000D+00  0.0000000000000D+00  0.0000000000000D+00
357  3.5600000000000D+00  0.0000000000000D+00  0.0000000000000D+00
358  3.5700000000000D+00  0.0000000000000D+00  0.0000000000000D+00
359  3.5800000000000D+00  0.0000000000000D+00  0.0000000000000D+00
360  3.5900000000000D+00  0.0000000000000D+00  0.0000000000000D+00
361  3.6000000000000D+00  0.0000000000000D+00  0.0000000000000D+00
362  3.6100000000000D+00  0.0000000000000D+00  0.0000000000000D+00
363  3.6200000000000D+00  0.0000000000000D+00  0.0000000000000D+00
364  3.6300000000000D+00  0.0000000000000D+00  0.0000000000000D+00
365  3.6400000000000D+00  0.0000000000000D+00  0.0000000000000D+00
366  3.6500000000000D+00  0.0000000000000D+00  0.0000000000000D+00
367  3.6600000000000D+00  0.0000000000000D+00  0.0000000000000D+00
368  3.6700000000000D+00  0.0000000000000D+00  0.0000000000000D+00
369  3.6800000000000D+00  0.0000000000000D+00  0.0000000000000D+00
370  3.6900000000000D+00  0.0000000000000D+00  0.0000000000000D+00
371  3.7000000000000D+00  0.0000000000000D+00  0.0000000000000D+00
372  3.7100000000000D+00  0.0000000000000D+00  0.0000000000000D+00
373  3.7200000000000D+00  0.0000000000000D+00  0.0000000000000D+00
374  3.7300000000000D+00  0.0000000000000D+00  0.0000000000000D+00
375  3.7400000000000D+00  0.0000000000000D+00  0.0000000000000D+00
376  3.7500000000000D+00  0.0000000000000D+00  0.0000000000000D+00
377  3.7600000000000D+00  0.0000000000000D+00  0.0000000000000D+00
378  3.7700000000000D+00  0.0000000000000D+00  0.0000000000000D+00
379  3.7800000000000D+00  0.0000000000000D+00  0.0000000000000D+00
380  3.7900000000000D+00  0.0000000000000D+00  0.0000000000000D+00
381  3.8000000000000D+00  0.0000000000000D+00  0.0000000000000D+00
382  3.8100000000000D+00  0.0000000000000D+00  0.0000000000000D+00
383  3.8200000000000D+00  0.0000000000000D+00  0.0000000000000D+00
384  3.8300000000000D+00  0.0000000000000D+00  0.0000000000000D+00
385  3.8400000000000D+00  0.0000000000000D+00  0.0000000000000D+00
386  3.8500000000000D+00  0.0000000000000D+00  0.0000000000000D+00
387  3.8600000000000D+00  0.0000000000000D+00  0.0000000000000D+00
388  3.8700000000000D+00  0.0000000000000D+00  0.0000000000000D+00
389  3.8800000000000D+00  0.0000000000000D+00  0.0000000000000D+00
390  3.8900000000000D+00  0.0000000000000D+00  0.0000000000000D+00
391  3.9000000000000D+00  0.0000000000000D+00  0.0000000000000D+00
392  3.9100000000000D+00  0.0000000000000D+00  0.0000000000000D+00
393  3.9200000000000D+00  0.0000000000000D+00  0.0000000000000D+00
394  3.9300000000000D+00  0.0000000000000D+00  0.0000000000000D+00
395  3.9400000000000D+00  0.0000000000000D+00  0.0000000000000D+00
396  3.9500000000000D+00  0.0000000000000D+00  0.0000000000000D+00
397  3.9600000000000D+00  0.0000000000000D+00  0.0000000000000D+00
398  3.9700000000000D+00  0.0000000000000D+00  0.0000000000000D+00
399  3.9800000000000D+00  0.0000000000000D+00  0.0000000000000D+00
400  3.9900000000000D+00  0.0000000000000D+00  0.0000000000000D+00
401  4.0000000000000D+00  0.0000000000000D+00  0.0000000000000D+00
402  4.0100000000000D+00  0.0000000000000D+00  0.0000000000000D+00
403  4.0200000000000D+00  0.0000000000000D+00  0.0000000000000D+00
404  4.0300000000000D+00  0.0000000000000D+00  0.0000000000000D+00
405  4.0400000000000D+00  0.0000000000000D+00  0.0000000000000D+00
406  4.0500000000000D+00  0.0000000000000D+00  0.0000000000000D+00
407  4.0600000000000D+00  0.0000000000000D+00  0.0000000000000D+00
408  4.0700000000000D+00  0.0000000000000D+00  0.0000000000000D+00
409  4.0800000000000D+00  0.0000000000000D+00  0.0000000000000D+00
410  4.0900000000000D+00  0.0000000000000D+00  0.0000000000000D+00
411  4.1000000000000D+00  0.0000000000000D+00  0.0000000000000D+00
412  4.1100000000000D+00  0.0000000000000D+00  0.0000000000000D+00
413  4.1200000000000D+00  0.0000000000000D+00  0.0000000000000D+00
414  4.1300000000000D+00  0.0000000000000D+00  0.0000000000000D+00
415  4.1400000000000D+00  0.0000000000000D+00  0.0000000000000D+00
416  4.1500000000000D+00  0.0000000000000D+00  0.0000000000000D+00
417  4.1600000000000D+00  0.0000000000000D+00  0.0000000000000D+00
418  4.1700000000000D+00  0.0000000000000D+00  0.0000000000000D+00
419  4.1800000000000D+00  0.0000000000000D+00  0.0000000000000D+00
420  4.1900000000000D+00  0.0000000000000D+00  0.0000000000000D+00
421  4.2000000000000D+00  0.0000000000000D+00  0.0000000000000D+00
422  4.2100000000000D+00  0.0000000000000D+00  0.0000000000000D+00
423  4.2200000000000D+00  0.0000000000000D+00  0.0000000000000D+00
424  4.2300000000000D+00  0.0000000000000D+00  0.0000000000000D+00
425  4.2400000000000D+00  0.0000000000000D+00  0.0000000000000D+00
426  4.2500000000000D+00  0.0000000000000D+00  0.0000000000000D+00
427  4.2600000000000D+00  0.0000000000000D+00  0.0000000000000D+00
428  4.2700000000000D+00  0.0000000000000D+00  0.0000000000000D+00
429  4.2800000000000D+00  0.0000000000000D+00  0.0000000000000D+00
430  4.2900000000000D+00  0.0000000000000D+00  0.0000000000000D+00
431  4.3000000000000D+00  0.0000000000000D+00  0.0000000000000D+00
432  4.3100000000000D+00  0.0000000000000D+00  0.0000000000000D+00
433  4.3200000000000D+00  0.0000000000000D+00  0.0000000000000D+00
434  4.3300000000000D+00  0.0000000000000D+00  0.0000000000000D+00
435  4.3400000000000D+00  0.0000000000000D+00  0.0000000000000D+00
436  4.3500000000000D+00  0.0000000000000D+00  0.0000000000000D+00
437  4.3600000000000D+00  0.0000000000000D+00  0.0000000000000D+00
438  4.3700000000000D+00  0.0000000000000D+00  0.0000000000000D+00
439  4.3800000000000D+00  0.0000000000000D+00  0.0000000000000D+00
440  4.3900000000000D+00  0.0000000000000D+00  0.0000000000000D+00
441  4.4000000000000D+00  0.0000000000000D+00  0.0000000000000D+00
442  4.4100000000000D+00  0.0000000000000D+00  0.0000000000000D+00
443  4.4200000000000D+00  0.0000000000000D+00  0.0000000000000D+00