<?xml version="1.0" encoding="UTF-8" ?>
<psml version="1.1" energy_unit="hartree" length_unit="bohr"
 uuid="93964cb0-471b-11e8-5609-73508af83a95"
 xmlns="http://esl.cecam.org/PSML/ns/1.1">
<provenance creator="ONCVPSP-3.3.0+psml-3.3.0-73 (fully-relativistic)"
 date="2018-04-23">
<annotation action="semilocal-pseudopotential-generation"
 action-cont="projectors-generation" />
<input-file name="oncvpsp-input">
<![CDATA[# atsym z nc nv iexc psfile
Br 35 6 2 4 both
# n l f
1 0 2.0
2 0 2.0
2 1 6.0
3 0 2.0
3 1 6.0
3 2 10.0
4 0 2.0
4 1 5.0
# lmax
2
# l rc ep ncon nbas qcut
0 1.8 0.0 4 9 5.9
1 1.5 0.0 4 8 7.4
2 1.9 0.1 4 9 7.4
# lloc lpopt rc5 dvloc0
4 5 1.5 0.0
# l nproj debl
0 2 3.2
1 2 4.0
2 2 2.5
# icmod fcfact
3 8.0 1.21
# epsh1 epsh2 depsh
-12.0 12.0 0.02
# rlmax drl
6.0 0.01
 0
]]>
</input-file>
</provenance>
<pseudo-atom-spec atomic-label="Br" atomic-number="35" z-pseudo="7"
 flavor="Hamann&apos;s oncvpsp" relativity="dirac" spin-dft="no"
 core-corrections="yes">
<annotation pseudo-energy="-13.4732281037" />
<exchange-correlation>
<annotation oncvpsp-xc-code="4" oncvpsp-xc-type="GGA -- Perdew-Burke-Ernzerhof" />
<libxc-info number-of-functionals="2">
<functional name="Perdew, Burke &amp; Ernzerhof (GGA)" type="exchange" id="101" />
<functional name="Perdew, Burke &amp; Ernzerhof (GGA)" type="correlation"
 id="130" />
</libxc-info>
</exchange-correlation>
<valence-configuration total-valence-charge="7">
<shell n="4" l="s" occupation="2" />
<shell n="4" l="p" occupation="5" />
</valence-configuration>
</pseudo-atom-spec>
<grid npts="457">
<annotation type="sampled from oncvpsp log grid"
 recipe="r(i:1..N) = r1*exp(a*(i-1)) + r=0; resampled"
 recipe-cont="r1: scale; a: step" scale="0.142857142857E-04"
 step="0.119285708653E-01" delta="0.500000000000E-02" rmax="44.2674114500" />
<grid-data>
  0.000000000000E+00  5.054917964046E-03  1.009680193746E-02  1.514681294670E-02
  2.016756950152E-02  2.529783174994E-02  3.061762502401E-02  3.575346707549E-02
  4.076653503389E-02  4.593131983604E-02  5.113679882137E-02  5.625713842976E-02
  6.189017883894E-02  6.727989812235E-02  7.313898224683E-02  7.856551971204E-02
  8.439467843280E-02  8.958135458679E-02  9.508679028850E-02  1.009305756658E-01
  1.071335048047E-01  1.123692191118E-01  1.178608076606E-01  1.236207752640E-01
  1.296622378566E-01  1.359989523613E-01  1.426453480144E-01  1.478424498244E-01
  1.532289014281E-01  1.588116015445E-01  1.645977002384E-01  1.705946080783E-01
  1.768100056273E-01  1.832518532800E-01  1.899284014579E-01  1.968482011761E-01
  2.040201149951E-01  2.114533283713E-01  2.165586575315E-01  2.217872497590E-01
  2.271420811171E-01  2.326261995236E-01  2.382427264849E-01  2.439948588732E-01
  2.498858707458E-01  2.559191152091E-01  2.620980263267E-01  2.684261210743E-01
  2.749070013416E-01  2.815443559820E-01  2.883419629128E-01  2.953036912653E-01
  3.024335035873E-01  3.097354580979E-01  3.172137109982E-01  3.248725188365E-01
  3.327162409313E-01  3.407493418524E-01  3.489763939620E-01  3.574020800179E-01
  3.660311958378E-01  3.748686530301E-01  3.839194817889E-01  3.931888337572E-01
  4.026819849594E-01  4.124043388043E-01  4.223614291604E-01  4.274297663103E-01
  4.325589235060E-01  4.377496305881E-01  4.430026261552E-01  4.483186576690E-01
  4.536984815610E-01  4.591428633398E-01  4.646525776999E-01  4.702284086323E-01
  4.758711495358E-01  4.815816033303E-01  4.873605825702E-01  4.932089095611E-01
  4.991274164758E-01  5.051169454735E-01  5.111783488192E-01  5.173124890050E-01
  5.235202388731E-01  5.298024817396E-01  5.361601115204E-01  5.425940328587E-01
  5.491051612530E-01  5.556944231880E-01  5.623627562663E-01  5.691111093415E-01
  5.759404426536E-01  5.828517279654E-01  5.898459487010E-01  5.969241000854E-01
  6.040871892864E-01  6.113362355579E-01  6.186722703846E-01  6.260963376292E-01
  6.336094936807E-01  6.412128076049E-01  6.489073612962E-01  6.566942496317E-01
  6.645745806273E-01  6.725494755948E-01  6.806200693020E-01  6.887875101336E-01
  6.970529602552E-01  7.054175957783E-01  7.138826069276E-01  7.224491982107E-01
  7.311185885893E-01  7.398920116523E-01  7.487707157922E-01  7.577559643817E-01
  7.668490359542E-01  7.760512243857E-01  7.853638390783E-01  7.947882051473E-01
  8.043256636090E-01  8.139775715723E-01  8.237453024312E-01  8.336302460604E-01
  8.436338090131E-01  8.537574147213E-01  8.640025036979E-01  8.743705337423E-01
  8.848629801472E-01  8.954813359090E-01  9.062271119399E-01  9.171018372832E-01
  9.281070593305E-01  9.392443440425E-01  9.505152761710E-01  9.619214594851E-01
  9.734645169989E-01  9.851460912029E-01  9.969678442973E-01  1.008931458429E+00
  1.021038635930E+00  1.033291099561E+00  1.045690592756E+00  1.058238879869E+00
  1.070937746427E+00  1.083788999385E+00  1.096794467377E+00  1.109956000986E+00
  1.123275472998E+00  1.136754778673E+00  1.150395836018E+00  1.164200586050E+00
  1.178170993082E+00  1.192309044999E+00  1.206616753539E+00  1.221096154582E+00
  1.235749308437E+00  1.250578300138E+00  1.265585239740E+00  1.280772262617E+00
  1.296141529768E+00  1.311695228125E+00  1.327435570863E+00  1.343364797713E+00
  1.359485175286E+00  1.375798997389E+00  1.392308585358E+00  1.409016288382E+00
  1.425924483843E+00  1.443035577649E+00  1.460352004580E+00  1.477876228635E+00
  1.495610743379E+00  1.513558072300E+00  1.531720769167E+00  1.550101418397E+00
  1.568702635418E+00  1.587527067043E+00  1.606577391848E+00  1.625856320550E+00
  1.645366596396E+00  1.665110995553E+00  1.685092327500E+00  1.705313435430E+00
  1.725777196655E+00  1.746486523015E+00  1.767444361291E+00  1.788653693626E+00
  1.810117537950E+00  1.831838948405E+00  1.853821015786E+00  1.876066867976E+00
  1.898579670391E+00  1.921362626436E+00  1.944418977953E+00  1.967752005689E+00
  1.991365029757E+00  2.015261410114E+00  2.039444547035E+00  2.063917881600E+00
  2.088684896179E+00  2.113749114933E+00  2.139114104312E+00  2.164783473564E+00
  2.190760875247E+00  2.217050005750E+00  2.243654605819E+00  2.270578461089E+00
  2.297825402622E+00  2.325399307453E+00  2.353304099143E+00  2.381543748332E+00
  2.410122273312E+00  2.439043740592E+00  2.468312265479E+00  2.497932012665E+00
  2.527907196817E+00  2.558242083179E+00  2.588940988177E+00  2.620008280035E+00
  2.651448379395E+00  2.683265759948E+00  2.715464949067E+00  2.748050528456E+00
  2.781027134798E+00  2.814399460415E+00  2.848172253940E+00  2.882350320988E+00
  2.916938524839E+00  2.951941787138E+00  2.987365088583E+00  3.023213469646E+00
  3.059492031282E+00  3.096205935657E+00  3.133360406885E+00  3.170960731768E+00
  3.209012260549E+00  3.247520407676E+00  3.286490652568E+00  3.325928540399E+00
  3.365839682883E+00  3.406229759078E+00  3.447104516187E+00  3.488469770381E+00
  3.530331407626E+00  3.572695384517E+00  3.615567729131E+00  3.658954541881E+00
  3.702861996384E+00  3.747296340340E+00  3.792263896424E+00  3.837771063181E+00
  3.883824315940E+00  3.930430207731E+00  3.977595370224E+00  4.025326514666E+00
  4.073630432842E+00  4.122513998036E+00  4.171984166013E+00  4.222047976005E+00
  4.272712551717E+00  4.323985102338E+00  4.375872923566E+00  4.428383398648E+00
  4.481523999432E+00  4.535302287425E+00  4.589725914875E+00  4.644802625853E+00
  4.700540257363E+00  4.756946740452E+00  4.814030101337E+00  4.871798462553E+00
  4.930260044104E+00  4.989423164633E+00  5.049296242609E+00  5.109887797520E+00
  5.171206451090E+00  5.233260928503E+00  5.296060059645E+00  5.359612780361E+00
  5.423928133725E+00  5.489015271330E+00  5.554883454586E+00  5.621542056041E+00
  5.689000560713E+00  5.757268567442E+00  5.826355790251E+00  5.896272059734E+00
  5.967027324451E+00  6.038631652345E+00  6.111095232173E+00  6.184428374959E+00
  6.258641515458E+00  6.333745213644E+00  6.409750156208E+00  6.486667158082E+00
  6.564507163979E+00  6.643281249947E+00  6.723000624946E+00  6.803676632445E+00
  6.885320752035E+00  6.967944601059E+00  7.051559936272E+00  7.136178655507E+00
  7.221812799373E+00  7.308474552966E+00  7.396176247601E+00  7.484930362573E+00
  7.574749526923E+00  7.665646521247E+00  7.757634279501E+00  7.850725890855E+00
  7.944934601546E+00  8.040273816764E+00  8.136757102565E+00  8.234398187796E+00
  8.333210966050E+00  8.433209497642E+00  8.534408011614E+00  8.636820907753E+00
  8.740462758647E+00  8.845348311750E+00  8.951492491491E+00  9.058910401389E+00
  9.167617326206E+00  9.277628734120E+00  9.388960278930E+00  9.501627802277E+00
  9.615647335904E+00  9.731035103935E+00  9.847807525182E+00  9.965981215485E+00
  1.008557299007E+01  1.020659986595E+01  1.032907906434E+01  1.045302801311E+01
  1.057846434927E+01  1.070540592146E+01  1.083387079252E+01  1.096387724203E+01
  1.109544376894E+01  1.122858909416E+01  1.136333216329E+01  1.149969214925E+01
  1.163768845504E+01  1.177734071650E+01  1.191866880510E+01  1.206169283076E+01
  1.220643314473E+01  1.235291034247E+01  1.250114526658E+01  1.265115900978E+01
  1.280297291789E+01  1.295660859291E+01  1.311208789602E+01  1.326943295078E+01
  1.342866614619E+01  1.358981013994E+01  1.375288786162E+01  1.391792251596E+01
  1.408493758615E+01  1.425395683718E+01  1.442500431923E+01  1.459810437106E+01
  1.477328162351E+01  1.495056100300E+01  1.512996773503E+01  1.531152734785E+01
  1.549526567603E+01  1.568120886414E+01  1.586938337051E+01  1.605981597095E+01
  1.625253376261E+01  1.644756416776E+01  1.664493493777E+01  1.684467415702E+01
  1.704681024691E+01  1.725137196987E+01  1.745838843351E+01  1.766788909471E+01
  1.787990376385E+01  1.809446260901E+01  1.831159616032E+01  1.853133531425E+01
  1.875371133802E+01  1.897875587407E+01  1.920650094456E+01  1.943697895590E+01
  1.967022270337E+01  1.990626537581E+01  2.014514056032E+01  2.038688224704E+01
  2.063152483401E+01  2.087910313201E+01  2.112965236960E+01  2.138320819803E+01
  2.163980669641E+01  2.189948437677E+01  2.216227818929E+01  2.242822552756E+01
  2.269736423389E+01  2.296973260470E+01  2.324536939595E+01  2.352431382871E+01
  2.380660559465E+01  2.409228486179E+01  2.438139228013E+01  2.467396898749E+01
  2.497005661534E+01  2.526969729472E+01  2.557293366226E+01  2.587980886621E+01
  2.619036657260E+01  2.650465097147E+01  2.682270678313E+01  2.714457926453E+01
  2.747031421570E+01  2.779995798629E+01  2.813355748213E+01  2.847116017191E+01
  2.881281409397E+01  2.915856786310E+01  2.950847067746E+01  2.986257232559E+01
  3.022092319350E+01  3.058357427182E+01  3.095057716308E+01  3.132198408904E+01
  3.169784789810E+01  3.207822207288E+01  3.246316073776E+01  3.285271866661E+01
  3.324695129061E+01  3.364591470610E+01  3.404966568257E+01  3.445826167076E+01
  3.487176081081E+01  3.529022194054E+01  3.571370460383E+01  3.614226905907E+01
  3.657597628778E+01  3.701488800323E+01  3.745906665927E+01  3.790857545918E+01
  3.836347836469E+01  3.882384010507E+01  3.928972618633E+01  3.976120290057E+01
  4.023833733537E+01  4.072119738340E+01  4.120985175200E+01  4.170436997302E+01
  4.220482241270E+01  4.271128028165E+01  4.322381564503E+01  4.374250143277E+01
  4.426741144996E+01
</grid-data>
</grid>
<valence-charge total-charge="7" is-unscreening-charge="yes"
 rescaled-to-z-pseudo="no">
<radfunc>
<data npts="457">
  8.897259575616E-03  8.924489903522E-03  9.005942681560E-03  9.142008082471E-03
  9.331547745069E-03  9.581413828296E-03  9.900922056233E-03  1.026824278915E-02
  1.068311406016E-02  1.116940674793E-02  1.172075583368E-02  1.232390225521E-02
  1.305822343732E-02  1.383144655865E-02  1.475186473097E-02  1.568003695025E-02
  1.675994677617E-02  1.779457138485E-02  1.897047962460E-02  2.030825062357E-02
  2.183176307285E-02  2.320282037424E-02  2.472673812421E-02  2.642197082760E-02
  2.830944185490E-02  3.041290806724E-02  3.275938147688E-02  3.469705471625E-02
  3.680316596954E-02  3.909376187533E-02  4.158656882294E-02  4.430117991116E-02
  4.725926249490E-02  5.048478826279E-02  5.400428786985E-02  5.784713220350E-02
  6.204584237580E-02  6.663643049731E-02  6.993405359705E-02  7.343633216781E-02
  7.715701951631E-02  8.111083073878E-02  8.531350684551E-02  8.978188216243E-02
  9.453395498982E-02  9.958896145726E-02  1.049674524659E-01  1.106913735505E-01
  1.167841474271E-01  1.232707589105E-01  1.301778417952E-01  1.375337671845E-01
  1.453687326275E-01  1.537148512832E-01  1.626062401649E-01  1.720791063319E-01
  1.821718296816E-01  1.929250407558E-01  2.043816916967E-01  2.165871181829E-01
  2.295890898254E-01  2.434378461128E-01  2.581861145570E-01  2.738891072025E-01
  2.906044911205E-01  3.083923279047E-01  3.273149765266E-01  3.372219371488E-01
  3.474369531834E-01  3.579683950222E-01  3.688247409814E-01  3.800145680394E-01
  3.915465414537E-01  4.034294031800E-01  4.156719590081E-01  4.282830643315E-01
  4.412716084574E-01  4.546464973657E-01  4.684166348173E-01  4.825909017122E-01
  4.971781335914E-01  5.121870961771E-01  5.276264588388E-01  5.435047658749E-01
  5.598304054939E-01  5.766115763825E-01  5.938562517423E-01  6.115721406833E-01
  6.297666468594E-01  6.484468242374E-01  6.676193298932E-01  6.872903737373E-01
  7.074656650777E-01  7.281503559400E-01  7.493489810764E-01  7.710653946105E-01
  7.933027032841E-01  8.160631962913E-01  8.393482717125E-01  8.631583595885E-01
  8.874928417069E-01  9.123499682121E-01  9.377267711882E-01  9.636189754152E-01
  9.900209065451E-01  1.016925397004E+00  1.044323689985E+00  1.072205341966E+00
  1.100558124248E+00  1.129367924102E+00  1.158618646165E+00  1.188292114834E+00
  1.218367978471E+00  1.248823616329E+00  1.279634049184E+00  1.310771854750E+00
  1.342207089031E+00  1.373907214831E+00  1.405837038726E+00  1.437958657835E+00
  1.470231417805E+00  1.502611883411E+00  1.535053823217E+00  1.567508209719E+00
  1.599923236353E+00  1.632244352693E+00  1.664414319071E+00  1.696373281735E+00
  1.728058869487E+00  1.759406312576E+00  1.790348584399E+00  1.820816566276E+00
  1.850739235342E+00  1.880043875227E+00  1.908656308926E+00  1.936501152868E+00
  1.963502090901E+00  1.989582166510E+00  2.014664091332E+00  2.038670567659E+00
  2.061524622444E+00  2.083149950068E+00  2.103471261031E+00  2.122414633678E+00
  2.139907866114E+00  2.155880825612E+00  2.170265793081E+00  2.182997800525E+00
  2.194014959886E+00  2.203258782254E+00  2.210674487050E+00  2.216211301522E+00
  2.219822751584E+00  2.221466945799E+00  2.221106854930E+00  2.218710590050E+00
  2.214251682616E+00  2.207709370051E+00  2.199068890321E+00  2.188321788544E+00
  2.175466237881E+00  2.160507375787E+00  2.143457655090E+00  2.124337207368E+00
  2.103174213776E+00  2.080005275811E+00  2.054875775694E+00  2.027840213232E+00
  1.998962503251E+00  1.968316215365E+00  1.935984735978E+00  1.902061331415E+00
  1.866649091018E+00  1.829860730258E+00  1.791817730251E+00  1.752647186393E+00
  1.712477306032E+00  1.671435975567E+00  1.629650709916E+00  1.587247533445E+00
  1.544350256734E+00  1.501079705212E+00  1.457552983597E+00  1.413882785198E+00
  1.370176761462E+00  1.326536967031E+00  1.283059394498E+00  1.239833611420E+00
  1.196942509713E+00  1.154462309624E+00  1.112463230645E+00  1.071010516184E+00
  1.030164624842E+00  9.899810721486E-01  9.505105710141E-01  9.117990892304E-01
  8.738879408411E-01  8.368138920910E-01  8.006092819532E-01  7.653021557076E-01
  7.309164100390E-01  6.974719481672E-01  6.649848434258E-01  6.334675100705E-01
  6.029288797158E-01  5.733745821729E-01  5.448071294031E-01  5.172261013871E-01
  4.906283327817E-01  4.650080993131E-01  4.403573029340E-01  4.166656548500E-01
  3.939208556037E-01  3.721087714831E-01  3.512136066024E-01  3.312180700797E-01
  3.121035378174E-01  2.938502084510E-01  2.764372531337E-01  2.598429588460E-01
  2.440448650339E-01  2.290198933952E-01  2.147444707188E-01  2.011946447201E-01
  1.883461928659E-01  1.761747242230E-01  1.646557744041E-01  1.537648937154E-01
  1.434777286411E-01  1.337700968223E-01  1.246180557098E-01  1.159979650851E-01
  1.078865436583E-01  1.002609199612E-01  9.309867775928E-02  8.637789621512E-02
  8.007718503496E-02  7.417571483363E-02  6.865324295334E-02  6.349013497077E-02
  5.866738212636E-02  5.416661490782E-02  4.997011301835E-02  4.606081195794E-02
  4.242230644429E-02  3.903885089717E-02  3.589535720803E-02  3.297739001348E-02
  3.027115968826E-02  2.776351326968E-02  2.544192352114E-02  2.329447633759E-02
  2.130985669020E-02  1.947733330130E-02  1.778674223356E-02  1.622846956982E-02
  1.479343335156E-02  1.347306493507E-02  1.225928991511E-02  1.114450875566E-02
  1.012157725748E-02  9.183786981665E-03  8.324845737920E-03  7.538858235636E-03
  6.820306985599E-03  6.164033529790E-03  5.565220066790E-03  5.019371530686E-03
  4.522298172117E-03  4.070098681394E-03  3.659143885344E-03  3.286061041926E-03
  2.947718749553E-03  2.641212481621E-03  2.363850750951E-03  2.113141903678E-03
  1.886781537567E-03  1.682640535895E-03  1.498753704701E-03  1.333308998533E-03
  1.184637317657E-03  1.051202858044E-03  9.315939942631E-04  8.245146746289E-04
  7.287763075381E-04  6.432901177975E-04  5.670599518970E-04  4.991755115102E-04
  4.388059950017E-04  3.851941273253E-04  3.376505593822E-04  2.955486186355E-04
  2.583193935189E-04  2.254471349263E-04  1.964649587851E-04  1.709508344149E-04
  1.485238440250E-04  1.288406993238E-04  1.115925017826E-04  9.650173363519E-05
  8.331946718536E-05  7.182278046564E-05  6.181236772009E-05  5.311033360057E-05
  4.555816035854E-05  3.901483769492E-05  3.335514530169E-05  2.846807849240E-05
  2.425540767928E-05  2.063036281383E-05  1.751643426630E-05  1.484628197875E-05
  1.256074508716E-05  1.060794456906E-05  8.942471834858E-06  7.524656541822E-06
  6.319907269083E-06  5.298119048144E-06  4.433142095435E-06  3.702306439692E-06
  3.085997476185E-06  2.567277810691E-06  2.131551077418E-06  1.766263725791E-06
  1.460641070051E-06  1.205454182303E-06  9.928144832875E-07  8.159931451920E-07
  6.692626670450E-07  5.477582153265E-07  4.473565404240E-07  3.645704834755E-07
  2.964572781769E-07  2.405390285817E-07  1.947339071414E-07  1.572967676924E-07
  1.267680062815E-07  1.019296292121E-07  8.176760306134E-08  6.543966630500E-08
  5.224787720449E-08  4.161525842361E-08  3.306597607023E-08  2.620856014586E-08
  2.072173534400E-08  1.634248636611E-08  1.285603099608E-08  1.008741763888E-08
  7.894502405084E-09  6.162094601099E-09  4.797089121389E-09  3.724430161647E-09
  2.883773274605E-09  2.226732437020E-09  1.714615820466E-09  1.316568664072E-09
  1.008054310214E-09  7.696153340015E-10  5.858659987677E-10  4.446752038654E-10
  3.365058374542E-10  2.538821652368E-10  1.909617174027E-10  1.431922048792E-10
  1.070374116111E-10  7.975886755887E-11  5.924249063138E-11  4.386136708262E-11
  3.236748140279E-11  2.380656216297E-11  1.745132571659E-11  1.274931449283E-11
  9.282274349524E-12  6.734624497825E-12  4.869067863379E-12  3.507789597066E-12
  2.518013711747E-12  1.800946623773E-12  1.283343465146E-12  9.110981330516E-13
  6.443891853474E-13  4.540174704374E-13  3.186531976552E-13  2.227744123731E-13
  1.551291132267E-13  1.075924280822E-13  7.432067898073E-14  5.112768179333E-14
  3.502673537995E-14  2.389564412681E-14  1.623272658607E-14  1.097983268439E-14
  7.394504595111E-15  4.958026833756E-15  3.309574455527E-15  2.199255521794E-15
  1.454775447870E-15  9.578757235880E-16  6.277564766606E-16  4.094658298613E-16
  2.658054238354E-16  1.717135919935E-16  1.103861961911E-16  7.061034545457E-17
  4.494062940320E-17  2.845774339614E-17  1.792771272906E-17  1.123528473514E-17
  6.015354440284E-18  3.737427365811E-18  0.000000000000E+00  0.000000000000E+00
  0.000000000000E+00  0.000000000000E+00  0.000000000000E+00  0.000000000000E+00
  0.000000000000E+00  0.000000000000E+00  0.000000000000E+00  0.000000000000E+00
  0.000000000000E+00  0.000000000000E+00  0.000000000000E+00  0.000000000000E+00
  0.000000000000E+00  0.000000000000E+00  0.000000000000E+00  0.000000000000E+00
  0.000000000000E+00  0.000000000000E+00  0.000000000000E+00  0.000000000000E+00
  0.000000000000E+00  0.000000000000E+00  0.000000000000E+00  0.000000000000E+00
  0.000000000000E+00  0.000000000000E+00  0.000000000000E+00  0.000000000000E+00
  0.000000000000E+00  0.000000000000E+00  0.000000000000E+00  0.000000000000E+00
  0.000000000000E+00  0.000000000000E+00  0.000000000000E+00  0.000000000000E+00
  0.000000000000E+00  0.000000000000E+00  0.000000000000E+00  0.000000000000E+00
  0.000000000000E+00  0.000000000000E+00  0.000000000000E+00  0.000000000000E+00
  0.000000000000E+00
</data>
</radfunc>
</valence-charge>
<pseudocore-charge matching-radius="1.13675477867"
 number-of-continuous-derivatives="4">
<annotation model-charge-form="Teter function with specified parameters" />
<radfunc>
<data npts="290">
  1.861154834127E+01  1.861075417339E+01  1.860838004470E+01  1.860441886894E+01
  1.859891082344E+01  1.859166716591E+01  1.858243329673E+01  1.857185706591E+01
  1.855996183676E+01  1.854608557565E+01  1.853043877751E+01  1.851342470464E+01
  1.849285236778E+01  1.847135514435E+01  1.844598087622E+01  1.842062373268E+01
  1.839140482391E+01  1.836368913469E+01  1.833250895343E+01  1.829743789341E+01
  1.825799888761E+01  1.822294643467E+01  1.818445696634E+01  1.814220147718E+01
  1.809582114891E+01  1.804492500583E+01  1.798908746439E+01  1.794368962293E+01
  1.789504300216E+01  1.784292462180E+01  1.778709765937E+01  1.772731082068E+01
  1.766329772044E+01  1.759477628153E+01  1.752144816305E+01  1.744299822917E+01
  1.735909407257E+01  1.726938560893E+01  1.720617433251E+01  1.714010660070E+01
  1.707106525568E+01  1.699892953115E+01  1.692357506866E+01  1.684487395123E+01
  1.676269475627E+01  1.667690263014E+01  1.658735938666E+01  1.649392363241E+01
  1.639645092126E+01  1.629479394153E+01  1.618880273864E+01  1.607832497683E+01
  1.596320624345E+01  1.584329039964E+01  1.571841998129E+01  1.558843665452E+01
  1.545318172984E+01  1.531249673949E+01  1.516622408250E+01  1.501420774200E+01
  1.485629407941E+01  1.469233271018E+01  1.452217746548E+01  1.434568744423E+01
  1.416272815954E+01  1.397317278319E+01  1.377690349152E+01  1.367621712433E+01
  1.357381291515E+01  1.346967933148E+01  1.336380569449E+01  1.325618223346E+01
  1.314680014186E+01  1.303565163510E+01  1.292273000988E+01  1.280802970513E+01
  1.269154636453E+01  1.257327690048E+01  1.245321955960E+01  1.233137398957E+01
  1.220774130734E+01  1.208232416851E+01  1.195512683799E+01  1.182615526159E+01
  1.169541713856E+01  1.156292199506E+01  1.142868125808E+01  1.129270833009E+01
  1.115501866386E+01  1.101562983755E+01  1.087456162966E+01  1.073183609375E+01
  1.058747763270E+01  1.044151307211E+01  1.029397173276E+01  1.014488550173E+01
  9.994288901810E+00  9.842219159081E+00  9.688716268062E+00  9.533823054238E+00
  9.377585233502E+00  9.220051468103E+00  9.061273418684E+00  8.901305791958E+00
  8.740206383545E+00  8.578036115477E+00  8.414859067883E+00  8.250742504311E+00
  8.085756890156E+00  7.919975903641E+00  7.753476438780E+00  7.586338599748E+00
  7.418645686073E+00  7.250484168060E+00  7.081943651844E+00  6.913116833491E+00
  6.744099441546E+00  6.574990167449E+00  6.405890583246E+00  6.236905046055E+00
  6.068140588728E+00  5.899706796232E+00  5.731715667267E+00  5.564281460683E+00
  5.397520526324E+00  5.231551119957E+00  5.066493202022E+00  4.902468219992E+00
  4.739598874228E+00  4.578008867274E+00  4.417822636653E+00  4.259165071311E+00
  4.102161211970E+00  3.946935935778E+00  3.793613625749E+00  3.642317825655E+00
  3.493170881132E+00  3.346293567956E+00  3.201804708561E+00  3.059820778071E+00
  2.920455501261E+00  2.783819442027E+00  2.650019587166E+00  2.519158926369E+00
  2.391336030582E+00  2.266644631001E+00  2.145173201174E+00  2.027004544829E+00
  1.912215392198E+00  1.800876007756E+00  1.693049812420E+00  1.588793023350E+00
  1.488154314598E+00  1.391174501910E+00  1.297886255018E+00  1.208313840779E+00
  1.122472900476E+00  1.040370264559E+00  9.620038079719E-01  8.873623490930E-01
  8.164255951171E-01  7.491641364731E-01  6.855394925909E-01  6.255042109968E-01
  5.690020213358E-01  5.159680454871E-01  4.663290644624E-01  4.200038422430E-01
  3.769035061606E-01  3.369319827974E-01  2.999864877625E-01  2.659580670202E-01
  2.347321867701E-01  2.061893681776E-01  1.802058625621E-01  1.566543619659E-01
  1.354047393656E-01  1.163248121678E-01  9.928112205549E-02  8.413972374674E-02
  7.076697479676E-02  5.903031824152E-02  4.879904965227E-02  3.994506006392E-02
  3.234354626456E-02  2.587368009977E-02  2.041922876134E-02  1.586911850018E-02
  1.211793482981E-02  9.066353068437E-03  6.621493997857E-03  4.697200488365E-03
  3.214232134231E-03  2.100376247802E-03  1.290474947479E-03  7.263695194646E-04
  3.567647039981E-04  1.370170196422E-04  2.885265731458E-05  2.181064954985E-08
  2.389752197743E-05  7.902817538197E-05  1.486536236795E-04  2.201955620085E-04
  2.847331292956E-04  3.364748089360E-04  3.722374982276E-04  3.909431181717E-04
  3.931423470024E-04  3.805739987534E-04  3.557672598043E-04  3.216924798991E-04
  2.814645378118E-04  2.381010226093E-04  1.943356531111E-04  1.524855689942E-04
  1.143694369939E-04  8.127179324667E-05  5.394775146012E-05  3.266120129743E-05
  1.724894531431E-05  7.202904402525E-06  1.762572182324E-06  1.031057847048E-08
  9.628249650267E-07  3.653192024193E-06  7.199074091008E-06  1.085416357794E-05
  1.404137372794E-05  1.636773659373E-05  1.762229638663E-05  1.775941444791E-05
  1.687076308269E-05  1.514983055545E-05  1.285296332127E-05  1.026083479967E-05
  7.643780155403E-06  5.233726211288E-06  3.204548554665E-06  1.661693026150E-06
  6.409023746929E-07  1.149856772551E-07  6.842200212189E-09  2.064675256244E-07
  5.894666140066E-07  1.034684067954E-06  1.438912413391E-06  1.727201457727E-06
  1.857988861282E-06  1.823012515695E-06  1.642654267533E-06  1.357915657296E-06
  1.020573317617E-06  6.831671784500E-07  3.903357546723E-07  1.726616744417E-07
  4.368991067259E-08  2.148176594395E-10  0.000000000000E+00  0.000000000000E+00
  0.000000000000E+00  0.000000000000E+00  0.000000000000E+00  0.000000000000E+00
  0.000000000000E+00  0.000000000000E+00  0.000000000000E+00  0.000000000000E+00
  0.000000000000E+00  0.000000000000E+00  0.000000000000E+00  0.000000000000E+00
  0.000000000000E+00  0.000000000000E+00  0.000000000000E+00  0.000000000000E+00
  0.000000000000E+00  0.000000000000E+00  0.000000000000E+00  0.000000000000E+00
  0.000000000000E+00  0.000000000000E+00  0.000000000000E+00  0.000000000000E+00
  0.000000000000E+00  0.000000000000E+00  0.000000000000E+00  0.000000000000E+00
  0.000000000000E+00  0.000000000000E+00
</data>
</radfunc>
</pseudocore-charge>
<semilocal-potentials set="scalar_relativistic">
<slps n="4" l="s" rc="1.81011753795">
<radfunc>
<data npts="290">
  6.068756774355E+01  6.064708090394E+01  6.052631405122E+01  6.032570483492E+01
  6.004858528603E+01  5.968734617807E+01  5.923205132082E+01  5.871759184331E+01
  5.814774182460E+01  5.749443732479E+01  5.677215937949E+01  5.600354559319E+01
  5.509673578724E+01  5.417454299234E+01  5.311800996705E+01  5.209524301543E+01
  5.095570953247E+01  4.991150400355E+01  4.877729031735E+01  4.755005596651E+01
  4.622770909584E+01  4.510065809614E+01  4.391219852071E+01  4.266304323438E+01
  4.135456531488E+01  3.998884295882E+01  3.856869138683E+01  3.746997669248E+01
  3.634442046999E+01  3.519403910149E+01  3.402107353091E+01  3.282797675203E+01
  3.161739741668E+01  3.039215970092E+01  2.915523968180E+01  2.790973858999E+01
  2.665885340778E+01  2.540584537315E+01  2.457095299337E+01  2.373755688563E+01
  2.290662846661E+01  2.207912977778E+01  2.125600913351E+01  2.043819688715E+01
  1.962660135313E+01  1.882210492083E+01  1.802556039264E+01  1.723778757541E+01
  1.645957015059E+01  1.569165284428E+01  1.493473891437E+01  1.418948796761E+01
  1.345651411526E+01  1.273638447196E+01  1.202961799879E+01  1.133668468760E+01
  1.065800508097E+01  9.993950119123E+00  9.344841302887E+00  8.710951160050E+00
  8.092504000985E+00  7.489676948622E+00  6.902601227346E+00  6.331363695448E+00
  5.776008606036E+00  5.236539582007E+00  4.712921791544E+00  4.457036286974E+00
  4.205084311635E+00  3.957051777671E+00  3.712922668204E+00  3.472679125654E+00
  3.236301542425E+00  3.003768653907E+00  2.775057633707E+00  2.550144191055E+00
  2.329002670309E+00  2.111606152487E+00  1.897926558733E+00  1.687934755673E+00
  1.481600662516E+00  1.278893359842E+00  1.079781199943E+00  8.842319185963E-01
  6.922127481179E-01  5.036905315598E-01  3.186318378316E-01  1.370030775793E-01
 -4.122938044253E-02 -2.160990927398E-01 -3.876394244928E-01 -5.558834333431E-01
 -7.208637538987E-01 -8.826124833743E-01 -1.041161068787E+00 -1.196540196216E+00
 -1.348779682623E+00 -1.497908370823E+00 -1.643954028237E+00 -1.786943250054E+00
 -1.926901367565E+00 -2.063852362388E+00 -2.197818787415E+00 -2.328821695318E+00
 -2.456880575499E+00 -2.582013300411E+00 -2.704236082195E+00 -2.823563440600E+00
 -2.940008183187E+00 -3.053581398757E+00 -3.164292465059E+00 -3.272149071616E+00
 -3.377157258705E+00 -3.479321473224E+00 -3.578644642319E+00 -3.675128265361E+00
 -3.768772524891E+00 -3.859576416853E+00 -3.947537900388E+00 -4.032654067139E+00
 -4.114921329842E+00 -4.194335629665E+00 -4.270892661442E+00 -4.344588115623E+00
 -4.415417935342E+00 -4.483378586611E+00 -4.548467339205E+00 -4.610682555284E+00
 -4.670023982362E+00 -4.726493046658E+00 -4.780093142389E+00 -4.830829912014E+00
 -4.878711511949E+00 -4.923748857815E+00 -4.965955842813E+00 -5.005349522524E+00
 -5.041950259111E+00 -5.075781817785E+00 -5.106871408359E+00 -5.135249664905E+00
 -5.160950556844E+00 -5.184011225417E+00 -5.204471740301E+00 -5.222374772295E+00
 -5.237765179364E+00 -5.250689505197E+00 -5.261195391434E+00 -5.269330907274E+00
 -5.275143802906E+00 -5.278680696423E+00 -5.279986207294E+00 -5.279102053199E+00
 -5.276066131028E+00 -5.270911606864E+00 -5.263666043956E+00 -5.254350601712E+00
 -5.242979342625E+00 -5.229558687496E+00 -5.214087062211E+00 -5.196554781440E+00