<?xml version="1.0" encoding="UTF-8" ?>
<psml version="1.1" energy_unit="hartree" length_unit="bohr"
 uuid="7fc23510-4706-11e8-6a6d-6f29befb5870"
 xmlns="http://esl.cecam.org/PSML/ns/1.1">
<provenance creator="ONCVPSP-3.3.0+psml-3.3.0-73 (fully-relativistic)"
 date="2018-04-23">
<annotation action="semilocal-pseudopotential-generation"
 action-cont="projectors-generation" />
<input-file name="oncvpsp-input">
<![CDATA[# atsym z nc nv iexc psfile
Cu 29 3 4 4 both
# n l f
1 0 2.0
2 0 2.0
2 1 6.0
3 0 2.0
3 1 6.0
3 2 10.0
4 0 1.0
# lmax
2
# l rc ep ncon nbas qcut
0 1.25 0.0 4 8 9.0
1 1.45 0.0 4 8 9.5
2 1.75 0.0 4 7 9.5
# lloc lpopt rc5 dvloc0
4 5 1.2 0.0
# l nproj debl
0 2 1.5
1 2 1.5
2 2 2.0
# icmod fcfact rcfact
3 3.5 1.65
# epsh1 epsh2 depsh
-12.0 12.0 0.02
# rlmax drl
6.0 0.01
 0
]]>
</input-file>
</provenance>
<pseudo-atom-spec atomic-label="Cu" atomic-number="29" z-pseudo="19"
 flavor="Hamann&apos;s oncvpsp" relativity="dirac" spin-dft="no"
 core-corrections="yes">
<annotation pseudo-energy="-185.320738328" />
<exchange-correlation>
<annotation oncvpsp-xc-code="4" oncvpsp-xc-type="GGA -- Perdew-Burke-Ernzerhof" />
<libxc-info number-of-functionals="2">
<functional name="Perdew, Burke &amp; Ernzerhof (GGA)" type="exchange" id="101" />
<functional name="Perdew, Burke &amp; Ernzerhof (GGA)" type="correlation"
 id="130" />
</libxc-info>
</exchange-correlation>
<valence-configuration total-valence-charge="19">
<shell n="3" l="s" occupation="2" />
<shell n="3" l="p" occupation="6" />
<shell n="3" l="d" occupation="10" />
<shell n="4" l="s" occupation="1" />
</valence-configuration>
</pseudo-atom-spec>
<grid npts="457">
<annotation type="sampled from oncvpsp log grid"
 recipe="r(i:1..N) = r1*exp(a*(i-1)) + r=0; resampled"
 recipe-cont="r1: scale; a: step" scale="0.172413793103E-04"
 step="0.119285708653E-01" delta="0.500000000000E-02" rmax="44.1434196577" />
<grid-data>
  0.000000000000E+00  5.040759278960E-03  1.006852107514E-02  1.510438714353E-02
  2.011108069843E-02  2.522697322451E-02  3.053186590510E-02  3.565332260536E-02
  4.114017728858E-02  4.635229949226E-02  5.160548885826E-02  5.677275850950E-02
  6.245742807768E-02  6.789654638074E-02  7.293412198510E-02  7.834545986930E-02
  8.415829127808E-02  8.933043969595E-02  9.482045482488E-02  1.006478719214E-01
  1.068334268276E-01  1.120544760441E-01  1.175306828056E-01  1.232745168994E-01
  1.292990575229E-01  1.356180230659E-01  1.422458023490E-01  1.474283472209E-01
  1.527997115230E-01  1.583667746511E-01  1.641366666430E-01  1.701167773103E-01
  1.763147657031E-01  1.827385699191E-01  1.893964172706E-01  1.962968348216E-01
  2.034486603088E-01  2.108610534604E-01  2.159520827352E-01  2.211660298207E-01
  2.265058624447E-01  2.319746199876E-01  2.375754152126E-01  2.433114360375E-01
  2.491859473491E-01  2.552022928619E-01  2.613638970208E-01  2.676742669505E-01
  2.741369944517E-01  2.807557580458E-01  2.875343250680E-01  2.944765538125E-01
  3.015863957277E-01  3.088678976662E-01  3.163252041874E-01  3.239625599173E-01
  3.317843119640E-01  3.397949123920E-01  3.479989207568E-01  3.564010066996E-01
  3.650059526053E-01  3.738186563250E-01  3.828441339633E-01  3.920875227337E-01
  4.015540838826E-01  4.112492056839E-01  4.211784065059E-01  4.262325473840E-01
  4.313473379526E-01  4.365235060080E-01  4.417617880801E-01  4.470629295371E-01
  4.524276846915E-01  4.578568169078E-01  4.633510987107E-01  4.689113118952E-01
  4.745382476380E-01  4.802327066096E-01  4.859954990890E-01  4.918274450780E-01
  4.977293744190E-01  5.037021269120E-01  5.097465524349E-01  5.158635110642E-01
  5.220538731969E-01  5.283185196753E-01  5.346583419114E-01  5.410742420143E-01
  5.475671329185E-01  5.541379385135E-01  5.607875937757E-01  5.675170449010E-01
  5.743272494398E-01  5.812191764331E-01  5.881938065503E-01  5.952521322289E-01
  6.023951578156E-01  6.096238997094E-01  6.169393865059E-01  6.243426591440E-01
  6.318347710537E-01  6.394167883064E-01  6.470897897661E-01  6.548548672432E-01
  6.627131256502E-01  6.706656831580E-01  6.787136713559E-01  6.868582354121E-01
  6.951005342371E-01  7.034417406479E-01  7.118830415357E-01  7.204256380341E-01
  7.290707456905E-01  7.378195946388E-01  7.466734297745E-01  7.556335109318E-01
  7.647011130630E-01  7.738775264197E-01  7.831640567368E-01  7.925620254176E-01
  8.020727697226E-01  8.116976429593E-01  8.214380146748E-01  8.312952708509E-01
  8.412708141011E-01  8.513660638703E-01  8.615824566368E-01  8.719214461164E-01
  8.823845034698E-01  8.929731175114E-01  9.036887949216E-01  9.145330604606E-01
  9.255074571862E-01  9.366135466724E-01  9.478529092325E-01  9.592271441432E-01
  9.707378698730E-01  9.823867243114E-01  9.941753650032E-01  1.006105469383E+00
  1.018178735016E+00  1.030396879836E+00  1.042761642394E+00  1.055274782103E+00
  1.067938079488E+00  1.080753336442E+00  1.093722376479E+00  1.106847044997E+00
  1.120129209537E+00  1.133570760051E+00  1.147173609172E+00  1.160939692482E+00
  1.174870968792E+00  1.188969420417E+00  1.203237053462E+00  1.217675898104E+00
  1.232288008881E+00  1.247075464988E+00  1.262040370567E+00  1.277184855014E+00
  1.292511073274E+00  1.308021206154E+00  1.323717460628E+00  1.339602070155E+00
  1.355677294997E+00  1.371945422537E+00  1.388408767607E+00  1.405069672819E+00
  1.421930508893E+00  1.438993674999E+00  1.456261599099E+00  1.473736738288E+00
  1.491421579148E+00  1.509318638098E+00  1.527430461755E+00  1.545759627296E+00
  1.564308742823E+00  1.583080447737E+00  1.602077413110E+00  1.621302342067E+00
  1.640757970172E+00  1.660447065814E+00  1.680372430604E+00  1.700536899771E+00
  1.720943342569E+00  1.741594662679E+00  1.762493798632E+00  1.783643724215E+00
  1.805047448906E+00  1.826708018293E+00  1.848628514512E+00  1.870812056686E+00
  1.893261801367E+00  1.915980942983E+00  1.938972714299E+00  1.962240386870E+00
  1.985787271513E+00  2.009616718771E+00  2.033732119396E+00  2.058136904829E+00
  2.082834547687E+00  2.107828562259E+00  2.133122505006E+00  2.158719975066E+00
  2.184624614767E+00  2.210840110144E+00  2.237370191466E+00  2.264218633764E+00
  2.291389257369E+00  2.318885928457E+00  2.346712559599E+00  2.374873110314E+00
  2.403371587638E+00  2.432212046689E+00  2.461398591250E+00  2.490935374345E+00
  2.520826598837E+00  2.551076518023E+00  2.581689436239E+00  2.612669709474E+00
  2.644021745988E+00  2.675750006939E+00  2.707859007023E+00  2.740353315107E+00
  2.773237554888E+00  2.806516405547E+00  2.840194602413E+00  2.874276937642E+00
  2.908768260894E+00  2.943673480025E+00  2.978997561785E+00  3.014745532527E+00
  3.050922478917E+00  3.087533548664E+00  3.124583951248E+00  3.162078958663E+00
  3.200023906167E+00  3.238424193041E+00  3.277285283357E+00  3.316612706758E+00
  3.356412059239E+00  3.396689003950E+00  3.437449271997E+00  3.478698663261E+00
  3.520443047220E+00  3.562688363787E+00  3.605440624152E+00  3.648705911642E+00
  3.692490382582E+00  3.736800267173E+00  3.781641870379E+00  3.827021572823E+00
  3.872945831697E+00  3.919421181678E+00  3.966454235858E+00  4.014051686688E+00
  4.062220306928E+00  4.110966950611E+00  4.160298554019E+00  4.210222136667E+00
  4.260744802307E+00  4.311873739935E+00  4.363616224814E+00  4.415979619512E+00
  4.468971374946E+00  4.522599031445E+00  4.576870219822E+00  4.631792662460E+00
  4.687374174410E+00  4.743622664503E+00  4.800546136477E+00  4.858152690114E+00
  4.916450522396E+00  4.975447928665E+00  5.035153303809E+00  5.095575143454E+00
  5.156722045176E+00  5.218602709718E+00  5.281225942234E+00  5.344600653541E+00
  5.408735861384E+00  5.473640691720E+00  5.539324380021E+00  5.605796272581E+00
  5.673065827852E+00  5.741142617786E+00  5.810036329200E+00  5.879756765150E+00
  5.950313846332E+00  6.021717612488E+00  6.093978223838E+00  6.167105962524E+00
  6.241111234074E+00  6.316004568883E+00  6.391796623710E+00  6.468498183194E+00
  6.546120161393E+00  6.624673603329E+00  6.704169686569E+00  6.784619722808E+00
  6.866035159482E+00  6.948427581396E+00  7.031808712372E+00  7.116190416921E+00
  7.201584701924E+00  7.288003718347E+00  7.375459762967E+00  7.463965280123E+00
  7.553532863484E+00  7.644175257846E+00  7.735905360940E+00  7.828736225271E+00
  7.922681059975E+00  8.017753232694E+00  8.113966271487E+00  8.211333866745E+00
  8.309869873145E+00  8.409588311623E+00  8.510503371363E+00  8.612629411819E+00
  8.715980964761E+00  8.820572736338E+00  8.926419609174E+00  9.033536644484E+00
  9.141939084218E+00  9.251642353229E+00  9.362662061467E+00  9.475014006205E+00
  9.588714174279E+00  9.703778744371E+00  9.820224089303E+00  9.938066778375E+00
  1.005732357972E+01  1.017801146267E+01  1.030014760022E+01  1.042374937143E+01
  1.054883436388E+01  1.067542037625E+01  1.080352542077E+01  1.093316772581E+01
  1.106436573852E+01  1.119713812739E+01  1.133150378492E+01  1.146748183033E+01
  1.160509161230E+01  1.174435271165E+01  1.188528494419E+01  1.202790836352E+01
  1.217224326388E+01  1.231831018304E+01  1.246612990524E+01  1.261572346410E+01
  1.276711214567E+01  1.292031749142E+01  1.307536130132E+01  1.323226563693E+01
  1.339105282458E+01  1.355174545847E+01  1.371436640397E+01  1.387893880082E+01
  1.404548606643E+01  1.421403189923E+01  1.438460028202E+01  1.455721548540E+01
  1.473190207123E+01  1.490868489608E+01  1.508758911484E+01  1.526864018421E+01
  1.545186386642E+01  1.563728623282E+01  1.582493366762E+01  1.601483287163E+01
  1.620701086609E+01  1.640149499648E+01  1.659831293644E+01  1.679749269167E+01
  1.699906260397E+01  1.720305135522E+01  1.740948797149E+01  1.761840182714E+01
  1.782982264907E+01  1.804378052086E+01  1.826030588711E+01  1.847942955775E+01
  1.870118271245E+01  1.892559690500E+01  1.915270406786E+01  1.938253651667E+01
  1.961512695487E+01  1.985050847833E+01  2.008871458007E+01  2.032977915503E+01
  2.057373650489E+01  2.082062134295E+01  2.107046879906E+01  2.132331442465E+01
  2.157919419775E+01  2.183814452812E+01  2.210020226246E+01  2.236540468961E+01
  2.263378954588E+01  2.290539502043E+01  2.318025976068E+01  2.345842287781E+01
  2.373992395234E+01  2.402480303977E+01  2.431310067625E+01  2.460485788436E+01
  2.490011617897E+01  2.519891757312E+01  2.550130458400E+01  2.580732023901E+01
  2.611700808187E+01  2.643041217886E+01  2.674757712500E+01  2.706854805050E+01
  2.739337062711E+01  2.772209107463E+01  2.805475616753E+01  2.839141324154E+01
  2.873211020044E+01  2.907689552284E+01  2.942581826912E+01  2.977892808835E+01
  3.013627522541E+01  3.049791052811E+01  3.086388545445E+01  3.123425207990E+01
  3.160906310486E+01  3.198837186212E+01  3.237223232447E+01  3.276069911236E+01
  3.315382750171E+01  3.355167343173E+01  3.395429351291E+01  3.436174503506E+01
  3.477408597549E+01  3.519137500719E+01  3.561367150728E+01  3.604103556537E+01
  3.647352799215E+01  3.691121032806E+01  3.735414485199E+01  3.780239459022E+01
  3.825602332530E+01  3.871509560520E+01  3.917967675246E+01  3.964983287349E+01
  4.012563086798E+01  4.060713843839E+01  4.109442409965E+01  4.158755718885E+01
  4.208660787511E+01  4.259164716962E+01  4.310274693565E+01  4.361997989888E+01
  4.414341965767E+01
</grid-data>
</grid>
<valence-charge total-charge="19" is-unscreening-charge="yes"
 rescaled-to-z-pseudo="no">
<radfunc>
<data npts="457">
  2.047616671224E+01  2.048444709980E+01  2.050919513758E+01  2.055046752411E+01
  2.060781739906E+01  2.068316818782E+01  2.077910593061E+01  2.088883091460E+01
  2.102490716244E+01  2.117178112725E+01  2.133702292288E+01  2.151625579803E+01
  2.173234853896E+01  2.195742567374E+01  2.218164873980E+01  2.243914821853E+01
  2.273464146868E+01  2.301372199910E+01  2.332627764831E+01  2.367604982282E+01
  2.406712255715E+01  2.441268626150E+01  2.478994927001E+01  2.520148931519E+01
  2.565002148831E+01  2.613838815292E+01  2.666954335299E+01  2.709781792331E+01
  2.755317890820E+01  2.803694290053E+01  2.855042440532E+01  2.909492198835E+01
  2.967170168669E+01  3.028197730903E+01  3.092688722207E+01  3.160746718956E+01
  3.232461880461E+01  3.307907303600E+01  3.360303239685E+01  3.414389803433E+01
  3.470170326043E+01  3.527641560515E+01  3.586792866523E+01  3.647605332807E+01
  3.710050835573E+01  3.774091031917E+01  3.839676288036E+01  3.906744542847E+01
  3.975220108713E+01  4.045012412246E+01  4.116014679699E+01  4.188102573210E+01
  4.261132786285E+01  4.334941609269E+01  4.409343478313E+01  4.484129524465E+01
  4.559066142973E+01  4.633893606810E+01  4.708324752668E+01  4.782043772347E+01
  4.854705147452E+01  4.925932770627E+01  4.995319302069E+01  5.062425815713E+01
  5.126781795133E+01  5.187885544571E+01  5.245205085548E+01  5.272271599949E+01
  5.298179613747E+01  5.322854865852E+01  5.346221594071E+01  5.368202641091E+01
  5.388719573527E+01  5.407692814662E+01  5.425041791416E+01  5.440685096136E+01
  5.454540663673E+01  5.466525964259E+01  5.476558212555E+01  5.484554593267E+01
  5.490432503577E+01  5.494109812610E+01  5.495505138036E+01  5.494538139807E+01
  5.491129830922E+01  5.485202904963E+01  5.476682080025E+01  5.465494458490E+01
  5.451569901940E+01  5.434841420311E+01  5.415245574205E+01  5.392722889066E+01
  5.367218279709E+01  5.338681483474E+01  5.307067500010E+01  5.272337035487E+01
  5.234456948756E+01  5.193400696731E+01  5.149148776012E+01  5.101689157505E+01
  5.051017710569E+01  4.997138612942E+01  4.940064742498E+01  4.879818046671E+01
  4.816429885187E+01  4.749941341583E+01  4.680403498859E+01  4.607877674536E+01
  4.532435610323E+01  4.454159611605E+01  4.373142632039E+01  4.289488298636E+01
  4.203310872927E+01  4.114735144055E+01  4.023896249965E+01  3.930939423320E+01
  3.836019659238E+01  3.739301302559E+01  3.640957553038E+01  3.541169887602E+01
  3.440127399694E+01  3.338026056626E+01  3.235067876904E+01  3.131460030518E+01
  3.027413866355E+01  2.923143872010E+01  2.818866572511E+01  2.714799375596E+01
  2.611159372422E+01  2.508162103671E+01  2.406020302103E+01  2.304942623592E+01
  2.205132379515E+01  2.106786284110E+01  2.010093230912E+01  1.915233112754E+01
  1.822375699906E+01  1.731679590795E+01  1.643291249352E+01  1.557344142361E+01
  1.473957989228E+01  1.393238135329E+01  1.315275058628E+01  1.240144017428E+01
  1.167904845166E+01  1.098601895912E+01  1.032264141907E+01  9.689054219605E+00
  9.085248370221E+00  8.511072867090E+00  7.966241381098E+00  7.450340158761E+00
  6.962837004976E+00  6.503091198121E+00  6.070364172763E+00  5.663830793834E+00
  5.282591038659E+00  4.925681900163E+00  4.592089326005E+00  4.280760247939E+00
  3.990615154834E+00  3.720560488319E+00  3.469498368110E+00  3.236335647272E+00
  3.019992119211E+00  2.819407860047E+00  2.633549652024E+00  2.461416470412E+00
  2.302044036015E+00  2.154508456061E+00  2.017928994612E+00  1.891469688689E+00
  1.774338995618E+00  1.665788478440E+00  1.565114094898E+00  1.471656931957E+00
  1.384803522235E+00  1.303985759640E+00  1.228680459150E+00  1.158408601396E+00
  1.092734298199E+00  1.031263510722E+00  9.736425477024E-01  9.195563674009E-01
  8.687267034827E-01  8.209100320628E-01  7.758953945008E-01  7.335008606000E-01
  6.935651152845E-01  6.559365906659E-01  6.204730202411E-01  5.870408699237E-01
  5.555148720302E-01  5.257775746769E-01  4.977189071357E-01  4.712357615478E-01
  4.462315912619E-01  4.226160259395E-01  4.003045034613E-01  3.792179185701E-01
  3.592822881000E-01  3.404284325633E-01  3.225916738025E-01  3.057115483569E-01
  2.897315361440E-01  2.745988040178E-01  2.602639637315E-01  2.466808438055E-01
  2.338062747854E-01  2.215998873544E-01  2.100239227614E-01  1.990430550165E-01
  1.886242243081E-01  1.787364810972E-01  1.693508403503E-01  1.604401453820E-01
  1.519789407885E-01  1.439433539666E-01  1.363109847273E-01  1.290608025290E-01
  1.221730508727E-01  1.156291584187E-01  1.094116564044E-01  1.035041019588E-01
  9.789100693157E-02  9.255777187174E-02  8.749062481028E-02  8.267656452021E-02
  7.810330794598E-02  7.375924151182E-02  6.963337603660E-02  6.571530499926E-02
  6.199516591552E-02  5.846360460210E-02  5.511174211939E-02  5.193114419791E-02
  4.891379296709E-02  4.605206081771E-02  4.333868624078E-02  4.076675149722E-02
  3.832966198247E-02  3.602112716003E-02  3.383514294667E-02  3.176597544012E-02
  2.980814588765E-02  2.795641680077E-02  2.620577912758E-02  2.455144040021E-02
  2.298881378065E-02  2.151350793058E-02  2.012131764036E-02  1.880821515186E-02
  1.757034211604E-02  1.640400212965E-02  1.530565379895E-02  1.427190428160E-02
  1.329950326151E-02  1.238533731432E-02  1.152642462447E-02  1.071991001758E-02
  9.963060275188E-03  9.253259701289E-03  8.588005913106E-03  7.964905831225E-03
  7.381671846617E-03  6.836118144675E-03  6.326157168646E-03  5.849796207085E-03
  5.405134092036E-03  4.990357996555E-03  4.603740322020E-03  4.243635667277E-03
  3.908477873173E-03  3.596777137367E-03  3.307117195488E-03  3.038152565722E-03
  2.788605854835E-03  2.557265124355E-03  2.342981316261E-03  2.144665738029E-03
  1.961287607229E-03  1.791871656164E-03  1.635495797178E-03  1.491288849369E-03
  1.358428327409E-03  1.236138293149E-03  1.123687270540E-03  1.020386224247E-03
  9.255866021493E-04  8.386784416997E-04  7.590885398832E-04  6.862786863052E-04
  6.197439587059E-04  5.590110799995E-04  5.036368357495E-04  4.532065508325E-04
  4.073326239118E-04  3.656531182379E-04  3.278304072268E-04  2.935498732212E-04
  2.625186578276E-04  2.344644622356E-04  2.091343959548E-04  1.862938724582E-04
  1.657255502818E-04  1.472283182035E-04  1.306163232026E-04  1.157180399771E-04
  1.023753808737E-04  9.044284515693E-05  7.978670660591E-05  7.028423848420E-05
  6.182297497148E-05  5.430000818184E-05  4.762131991674E-05  4.170114731517E-05
  3.646138156829E-05  3.183099886250E-05  2.774552270438E-05  2.414651676495E-05
  2.098110736059E-05  1.820153466418E-05  1.576473171829E-05  1.363193029127E-05
  1.176829259168E-05  1.014256791541E-05  8.726773046962E-06  7.495894529388E-06
  6.427620349043E-06  5.502064326783E-06  4.701570979148E-06  4.010474959173E-06
  3.414900245055E-06  2.902590454798E-06  2.462712693867E-06  2.085713605828E-06
  1.763197193803E-06  1.487800517572E-06  1.253078698203E-06  1.053401458951E-06
  8.838598384135E-07  7.401822645810E-07  6.186592205518E-07  5.160757752671E-07
  4.296512952544E-07  3.569856957689E-07  2.960116315398E-07  2.449520683238E-07
  2.022827163898E-07  1.666988457063E-07  1.370860398189E-07  1.124944810311E-07
  9.211639345940E-08  7.526630271713E-08  6.136380136672E-08  4.991853781904E-08
  4.051717306102E-08  3.281207446495E-08  2.651153900922E-08  2.137135956429E-08
  1.718756752739E-08  1.379020308976E-08  1.103798086736E-08  8.813733596844E-09
  7.020530179654E-09  5.578376631882E-09  4.421419554513E-09  3.495581664076E-09
  2.756567803093E-09  2.168187766809E-09  1.700949318126E-09  1.330880994038E-09
  1.038549807859E-09  8.082437919434E-10  6.272935707578E-10  4.855108653084E-10
  3.747250635991E-10  2.884018001436E-10  2.213299257317E-10  1.693652963615E-10
  1.235453388558E-10  9.405357906180E-11  7.138709147224E-11  5.401872031897E-11
  4.075057797450E-11  3.064591238484E-11  2.297443569724E-11  1.716859138095E-11
  1.278868158938E-11  9.495148283559E-12  7.026611543999E-12  5.182525941567E-12
  3.809528954967E-12  2.790731226397E-12  2.037342959268E-12  1.482149129831E-12
  1.074442790748E-12  7.761043054448E-13  5.585780055851E-13  4.005491497834E-13
  2.861653904098E-13  2.036800712166E-13  1.444211136156E-13  1.020102712296E-13
  7.177418517646E-14  5.030181326489E-14  3.511313500694E-14  2.441212071622E-14
  1.690325850280E-14  1.165583003125E-14  8.003913596110E-15  5.473010634635E-15
  3.726429773825E-15  2.526271973033E-15  1.705160535212E-15  1.145844445989E-15
  7.665459903225E-16  5.104810038303E-16  3.383967186314E-16  2.232821322090E-16
  1.466354099222E-16  9.584209431062E-17  6.234210651906E-17  4.035424868709E-17
  2.599287181291E-17  1.665906472728E-17  1.062312686225E-17  6.739588432986E-18
  4.253701778284E-18  2.670707761808E-18  1.667953935939E-18  1.036125700595E-18
  6.401526818279E-19  3.933408914316E-19  2.403479139320E-19  1.460388185840E-19
  8.823147586330E-20  5.300004182040E-20  3.165164728840E-20  0.000000000000E+00
  0.000000000000E+00  0.000000000000E+00  0.000000000000E+00  0.000000000000E+00
  0.000000000000E+00  0.000000000000E+00  0.000000000000E+00  0.000000000000E+00
  0.000000000000E+00  0.000000000000E+00  0.000000000000E+00  0.000000000000E+00
  0.000000000000E+00  0.000000000000E+00  0.000000000000E+00  0.000000000000E+00
  0.000000000000E+00
</data>
</radfunc>
</valence-charge>
<pseudocore-charge matching-radius="0.373818656325"
 number-of-continuous-derivatives="4">
<annotation model-charge-form="Teter function with specified parameters" />
<radfunc>
<data npts="290">
  1.832296705437E+02  1.831910098578E+02  1.830754718375E+02  1.828828206731E+02
  1.826151895124E+02  1.822636720266E+02  1.818163075340E+02  1.813049165125E+02
  1.806711022771E+02  1.799874794864E+02  1.792189642031E+02  1.783860951612E+02
  1.773829322034E+02  1.763392060927E+02  1.753005975376E+02  1.741092702237E+02
  1.727440238253E+02  1.714564236627E+02  1.700164605294E+02  1.684076305182E+02
  1.666120504980E+02  1.650282273598E+02  1.633020977009E+02  1.614226546207E+02
  1.593784129093E+02  1.571574741062E+02  1.547476162293E+02  1.528087729637E+02
  1.507514042805E+02  1.485702678927E+02  1.462602012438E+02  1.438161824609E+02
  1.412334006952E+02  1.385073365828E+02  1.356338534887E+02  1.326093000910E+02
  1.294306247031E+02  1.260955015084E+02  1.237844086783E+02  1.214029234870E+02
  1.189510772824E+02  1.164291438649E+02  1.138376618715E+02  1.111774577436E+02
  1.084496691064E+02  1.056557683549E+02  1.027975861996E+02  9.987733488729E+01
  9.689763076238E+01  9.386151579120E+01  9.077247761920E+01  8.763446768239E+01
  8.445191684250E+01  8.122974796652E+01  7.797338482425E+01  7.468875663457E+01
  7.138229755696E+01  6.806094039704E+01  6.473210378224E+01  6.140367206445E+01
  5.808396722761E+01  5.478171212124E+01  5.150598441122E+01  4.826616073985E+01
  4.507185072232E+01  4.193282057947E+01  3.885890642036E+01  3.734943710583E+01
  3.585991744327E+01  3.439155193256E+01  3.294552962209E+01  3.152302033363E+01
  3.012517078381E+01  2.875310061623E+01  2.740789835998E+01  2.609061733195E+01
  2.480227150197E+01  2.354383134175E+01  2.231621968014E+01  2.112030758887E+01
  1.995691032466E+01  1.882678335498E+01  1.773061849616E+01  1.666904019370E+01
  1.564260197604E+01  1.465178311340E+01  1.369698551444E+01  1.277853089344E+01
  1.189665824128E+01  1.105152163254E+01  1.024318840131E+01  9.471637716433E+00
  8.736759586148E+00  8.038354319895E+00  7.376132472861E+00  6.749715296023E+00
  6.158635711204E+00  5.602339826854E+00  5.080189006064E+00  4.591462493598E+00
  4.135360603483E+00  3.711008463274E+00  3.317460304928E+00  2.953704286092E+00
  2.618667818951E+00  2.311223377101E+00  2.030194744005E+00  1.774363659810E+00
  1.542476816527E+00  1.333253145111E+00  1.145391331834E+00  9.775774957037E-01
  8.284929536980E-01  6.968219963542E-01  5.812595929642E-01  4.805189433834E-01
  3.933387924021E-01  3.184904228745E-01  2.547842454326E-01  2.010759057215E-01
  1.562718347227E-01  1.193341738954E-01  8.928501456152E-02  6.520990011836E-02
  4.626055020029E-02  3.165677768280E-02  2.068758225125E-02  1.271141791401E-02
  7.155646061387E-03  3.515200151668E-03  1.350502507800E-03  2.846876700883E-04
  1.998932701616E-07  2.348443167715E-04  7.773816972938E-04  1.462765016217E-03
  2.167122438157E-03  2.802594728313E-03  3.312136125872E-03  3.664385686957E-03
  3.848711211539E-03  3.870520111209E-03  3.746921121544E-03  3.502807884214E-03
  3.167420496510E-03  2.771424624036E-03  2.344530256626E-03  1.913654286097E-03
  1.501613469642E-03  1.126317703476E-03  8.004185412851E-04  5.313551761104E-04
  3.217302040813E-04  1.699408292912E-04  7.098803099261E-05  1.738670766128E-05
  1.038630533715E-07  9.459242052284E-06  3.593300866572E-05  7.083746744171E-05
  1.068237081243E-04  1.382085513964E-04  1.611213967805E-04  1.734836420251E-04
  1.748444518331E-04  1.661051331041E-04  1.491697432573E-04  1.265615678001E-04
  1.010437601477E-04  7.527801092198E-05  5.154812296968E-05  3.156653823714E-05
  1.637206867200E-05  6.317273304327E-06  1.135030473766E-06  6.670538443448E-08
  2.029546999147E-06  5.798945375572E-06  1.018202038901E-05  1.416246153286E-05
  1.700207197337E-05  1.829133181571E-05  1.794858534502E-05  1.617424059456E-05
  1.337179720418E-05  1.005093674493E-05  6.728950849040E-06  3.845417627419E-06
  1.701581977821E-06  4.309671618279E-07  2.169439753883E-09  0.000000000000E+00
  0.000000000000E+00  0.000000000000E+00  0.000000000000E+00  0.000000000000E+00
  0.000000000000E+00  0.000000000000E+00  0.000000000000E+00  0.000000000000E+00
  0.000000000000E+00  0.000000000000E+00  0.000000000000E+00  0.000000000000E+00
  0.000000000000E+00  0.000000000000E+00  0.000000000000E+00  0.000000000000E+00
  0.000000000000E+00  0.000000000000E+00  0.000000000000E+00  0.000000000000E+00
  0.000000000000E+00  0.000000000000E+00  0.000000000000E+00  0.000000000000E+00
  0.000000000000E+00  0.000000000000E+00  0.000000000000E+00  0.000000000000E+00
  0.000000000000E+00  0.000000000000E+00  0.000000000000E+00  0.000000000000E+00
  0.000000000000E+00  0.000000000000E+00  0.000000000000E+00  0.000000000000E+00
  0.000000000000E+00  0.000000000000E+00  0.000000000000E+00  0.000000000000E+00
  0.000000000000E+00  0.000000000000E+00  0.000000000000E+00  0.000000000000E+00
  0.000000000000E+00  0.000000000000E+00  0.000000000000E+00  0.000000000000E+00
  0.000000000000E+00  0.000000000000E+00  0.000000000000E+00  0.000000000000E+00
  0.000000000000E+00  0.000000000000E+00  0.000000000000E+00  0.000000000000E+00
  0.000000000000E+00  0.000000000000E+00  0.000000000000E+00  0.000000000000E+00
  0.000000000000E+00  0.000000000000E+00  0.000000000000E+00  0.000000000000E+00
  0.000000000000E+00  0.000000000000E+00  0.000000000000E+00  0.000000000000E+00
  0.000000000000E+00  0.000000000000E+00  0.000000000000E+00  0.000000000000E+00
  0.000000000000E+00  0.000000000000E+00  0.000000000000E+00  0.000000000000E+00
  0.000000000000E+00  0.000000000000E+00  0.000000000000E+00  0.000000000000E+00
  0.000000000000E+00  0.000000000000E+00  0.000000000000E+00  0.000000000000E+00
  0.000000000000E+00  0.000000000000E+00  0.000000000000E+00  0.000000000000E+00
  0.000000000000E+00  0.000000000000E+00  0.000000000000E+00  0.000000000000E+00
  0.000000000000E+00  0.000000000000E+00  0.000000000000E+00  0.000000000000E+00
  0.000000000000E+00  0.000000000000E+00
</data>
</radfunc>
</pseudocore-charge>
<semilocal-potentials set="scalar_relativistic">
<slps n="3" l="s" rc="1.26204037057">
<radfunc>
<data npts="290">
 -2.921005974991E+01 -2.921006057933E+01 -2.921006283597E+01 -2.921006659291E+01
 -2.921007185617E+01 -2.921007884433E+01 -2.921008783658E+01 -2.921009820497E+01
 -2.921011110260E+01 -2.921012495023E+01 -2.921014026517E+01 -2.921015633262E+01
 -2.921017459172E+01 -2.921019185336E+01 -2.921020676241E+01 -2.921022040625E+01
 -2.921023052035E+01 -2.921023361962E+01 -2.921022839672E+01 -2.921020998576E+01
 -2.921017132482E+01 -2.921011912340E+01 -2.921004041407E+01 -2.920992576057E+01
 -2.920976272425E+01 -2.920953497289E+01 -2.920922114224E+01 -2.920891282210E+01
 -2.920852587257E+01 -2.920804242488E+01 -2.920744082602E+01 -2.920669488963E+01
 -2.920577301035E+01 -2.920463711936E+01 -2.920324145593E+01 -2.920153112675E+01
 -2.919944042093E+01 -2.919689084546E+01 -2.919489069636E+01 -2.919261341381E+01
 -2.919002314189E+01 -2.918707971174E+01 -2.918373816971E+01 -2.917994826121E+01
 -2.917565386703E+01 -2.917079238955E+01 -2.916529408589E+01 -2.915908134558E+01
 -2.915206791066E+01 -2.914415803674E+01 -2.913524559418E+01 -2.912521310979E+01
 -2.911393075061E+01 -2.910125525341E+01 -2.908702880507E+01 -2.907107788353E+01
 -2.905321206930E+01 -2.903322284532E+01 -2.901088240522E+01 -2.898594249667E+01
 -2.895813333295E+01 -2.892716261244E+01 -2.889271469306E+01 -2.885444997491E+01
 -2.881200454989E+01 -2.876499017949E+01 -2.871299466045E+01 -2.868499379250E+01
 -2.865558263092E+01 -2.862470334770E+01 -2.859229685502E+01 -2.855830287245E+01
 -2.852266000126E+01 -2.848530580568E+01 -2.844617690028E+01 -2.840520904288E+01
 -2.836233723209E+01 -2.831749580851E+01 -2.827061855866E+01 -2.822163882069E+01
 -2.817048959094E+01 -2.811710363044E+01 -2.806141357108E+01 -2.800335202072E+01
 -2.794285166756E+01 -2.787984538381E+01 -2.781426632958E+01 -2.774604805796E+01
 -2.767512462273E+01 -2.760143069058E+01 -2.752490165968E+01 -2.744547378689E+01
 -2.736308432578E+01 -2.727767167746E+01 -2.718917555619E+01 -2.709753717103E+01
 -2.700269942467E+01 -2.690460712948E+01 -2.680320724036E+01 -2.669844910259E+01
 -2.659028471287E+01 -2.647866898904E+01 -2.636356004458E+01 -2.624491946177E+01
 -2.612271255654E+01 -2.599690862753E+01 -2.586748118048E+01 -2.573440811906E+01
 -2.559767189271E+01 -2.545725959259E+01 -2.531316298714E+01 -2.516537848993E+01
 -2.501390705442E+01 -2.485875399187E+01 -2.469992871161E+01 -2.453744438533E+01
 -2.437131754021E+01 -2.420156758872E+01 -2.402821630587E+01 -2.385128726754E+01
 -2.367080526612E+01 -2.348679572230E+01 -2.329928411360E+01 -2.310829544301E+01
 -2.291385377244E+01 -2.271598184862E+01 -2.251470085090E+01 -2.231003029361E+01
 -2.210198811846E+01 -2.189059101642E+01 -2.167585502205E+01 -2.145779642786E+01
 -2.123643307037E+01 -2.101178604380E+01 -2.078388190067E+01 -2.055275540160E+01
 -2.031845287716E+01 -2.008103626405E+01 -1.984058787351E+01 -1.959721594234E+01
 -1.935106100482E+01 -1.910230310569E+01 -1.885116985062E+01 -1.859794525908E+01
 -1.834297934594E+01 -1.808669831118E+01 -1.782961516320E+01 -1.757234054082E+01
 -1.731559343378E+01 -1.706021143534E+01 -1.680716009619E+01 -1.655754089233E+01
 -1.631259727715E+01 -1.607371826727E+01 -1.584243902198E+01 -1.562043792665E+01