<?xml version="1.0" encoding="UTF-8" ?>
<psml version="1.1" energy_unit="hartree" length_unit="bohr"
 uuid="9bedb100-5166-11e8-6de9-f326fbf30adb"
 xmlns="http://esl.cecam.org/PSML/ns/1.1">
<provenance creator="ONCVPSP-3.3.0+psml-3.3.0-73 (fully-relativistic)"
 date="2018-05-06">
<annotation action="semilocal-pseudopotential-generation"
 action-cont="projectors-generation" />
<input-file name="oncvpsp-input">
<![CDATA[# atsym z nc nv iexc psfile
Cu 29 3 4 4 both
# n l f
1 0 2.0
2 0 2.0
2 1 6.0
3 0 2.0
3 1 6.0
3 2 10.0
4 0 1.0
# lmax
2
# l rc ep ncon nbas qcut
0 1.2 0.0 4 8 9.6
1 1.3 0.0 4 8 10.0
2 1.6 0.0 4 7 10.4
# lloc lpopt rc5 dvloc0
4 5 1.2 0.0
# l nproj debl
0 2 1.5
1 2 1.5
2 2 2.0
# icmod fcfact
3 5 1.45
# epsh1 epsh2 depsh
-12.0 12.0 0.02
# rlmax drl
6.0 0.01
 0
]]>
</input-file>
</provenance>
<pseudo-atom-spec atomic-label="Cu" atomic-number="29" z-pseudo="19"
 flavor="Hamann&apos;s oncvpsp" relativity="dirac" spin-dft="no"
 core-corrections="yes">
<annotation pseudo-energy="-188.831669374" />
<exchange-correlation>
<annotation oncvpsp-xc-code="4" oncvpsp-xc-type="GGA -- Perdew-Burke-Ernzerhof" />
<libxc-info number-of-functionals="2">
<functional name="Perdew, Burke &amp; Ernzerhof (GGA)" type="exchange" id="101" />
<functional name="Perdew, Burke &amp; Ernzerhof (GGA)" type="correlation"
 id="130" />
</libxc-info>
</exchange-correlation>
<valence-configuration total-valence-charge="19">
<shell n="3" l="s" occupation="2" />
<shell n="3" l="p" occupation="6" />
<shell n="3" l="d" occupation="10" />
<shell n="4" l="s" occupation="1" />
</valence-configuration>
</pseudo-atom-spec>
<grid npts="457">
<annotation type="sampled from oncvpsp log grid"
 recipe="r(i:1..N) = r1*exp(a*(i-1)) + r=0; resampled"
 recipe-cont="r1: scale; a: step" scale="0.172413793103E-04"
 step="0.119285708653E-01" delta="0.500000000000E-02" rmax="44.1434196577" />
<grid-data>
  0.000000000000E+00  5.040759278960E-03  1.006852107514E-02  1.510438714353E-02
  2.011108069843E-02  2.522697322451E-02  3.053186590510E-02  3.565332260536E-02
  4.114017728858E-02  4.635229949226E-02  5.160548885826E-02  5.677275850950E-02
  6.245742807768E-02  6.789654638074E-02  7.293412198510E-02  7.834545986930E-02
  8.415829127808E-02  8.933043969595E-02  9.482045482488E-02  1.006478719214E-01
  1.068334268276E-01  1.120544760441E-01  1.175306828056E-01  1.232745168994E-01
  1.292990575229E-01  1.356180230659E-01  1.422458023490E-01  1.474283472209E-01
  1.527997115230E-01  1.583667746511E-01  1.641366666430E-01  1.701167773103E-01
  1.763147657031E-01  1.827385699191E-01  1.893964172706E-01  1.962968348216E-01
  2.034486603088E-01  2.108610534604E-01  2.159520827352E-01  2.211660298207E-01
  2.265058624447E-01  2.319746199876E-01  2.375754152126E-01  2.433114360375E-01
  2.491859473491E-01  2.552022928619E-01  2.613638970208E-01  2.676742669505E-01
  2.741369944517E-01  2.807557580458E-01  2.875343250680E-01  2.944765538125E-01
  3.015863957277E-01  3.088678976662E-01  3.163252041874E-01  3.239625599173E-01
  3.317843119640E-01  3.397949123920E-01  3.479989207568E-01  3.564010066996E-01
  3.650059526053E-01  3.738186563250E-01  3.828441339633E-01  3.920875227337E-01
  4.015540838826E-01  4.112492056839E-01  4.211784065059E-01  4.262325473840E-01
  4.313473379526E-01  4.365235060080E-01  4.417617880801E-01  4.470629295371E-01
  4.524276846915E-01  4.578568169078E-01  4.633510987107E-01  4.689113118952E-01
  4.745382476380E-01  4.802327066096E-01  4.859954990890E-01  4.918274450780E-01
  4.977293744190E-01  5.037021269120E-01  5.097465524349E-01  5.158635110642E-01
  5.220538731969E-01  5.283185196753E-01  5.346583419114E-01  5.410742420143E-01
  5.475671329185E-01  5.541379385135E-01  5.607875937757E-01  5.675170449010E-01
  5.743272494398E-01  5.812191764331E-01  5.881938065503E-01  5.952521322289E-01
  6.023951578156E-01  6.096238997094E-01  6.169393865059E-01  6.243426591440E-01
  6.318347710537E-01  6.394167883064E-01  6.470897897661E-01  6.548548672432E-01
  6.627131256502E-01  6.706656831580E-01  6.787136713559E-01  6.868582354121E-01
  6.951005342371E-01  7.034417406479E-01  7.118830415357E-01  7.204256380341E-01
  7.290707456905E-01  7.378195946388E-01  7.466734297745E-01  7.556335109318E-01
  7.647011130630E-01  7.738775264197E-01  7.831640567368E-01  7.925620254176E-01
  8.020727697226E-01  8.116976429593E-01  8.214380146748E-01  8.312952708509E-01
  8.412708141011E-01  8.513660638703E-01  8.615824566368E-01  8.719214461164E-01
  8.823845034698E-01  8.929731175114E-01  9.036887949216E-01  9.145330604606E-01
  9.255074571862E-01  9.366135466724E-01  9.478529092325E-01  9.592271441432E-01
  9.707378698730E-01  9.823867243114E-01  9.941753650032E-01  1.006105469383E+00
  1.018178735016E+00  1.030396879836E+00  1.042761642394E+00  1.055274782103E+00
  1.067938079488E+00  1.080753336442E+00  1.093722376479E+00  1.106847044997E+00
  1.120129209537E+00  1.133570760051E+00  1.147173609172E+00  1.160939692482E+00
  1.174870968792E+00  1.188969420417E+00  1.203237053462E+00  1.217675898104E+00
  1.232288008881E+00  1.247075464988E+00  1.262040370567E+00  1.277184855014E+00
  1.292511073274E+00  1.308021206154E+00  1.323717460628E+00  1.339602070155E+00
  1.355677294997E+00  1.371945422537E+00  1.388408767607E+00  1.405069672819E+00
  1.421930508893E+00  1.438993674999E+00  1.456261599099E+00  1.473736738288E+00
  1.491421579148E+00  1.509318638098E+00  1.527430461755E+00  1.545759627296E+00
  1.564308742823E+00  1.583080447737E+00  1.602077413110E+00  1.621302342067E+00
  1.640757970172E+00  1.660447065814E+00  1.680372430604E+00  1.700536899771E+00
  1.720943342569E+00  1.741594662679E+00  1.762493798632E+00  1.783643724215E+00
  1.805047448906E+00  1.826708018293E+00  1.848628514512E+00  1.870812056686E+00
  1.893261801367E+00  1.915980942983E+00  1.938972714299E+00  1.962240386870E+00
  1.985787271513E+00  2.009616718771E+00  2.033732119396E+00  2.058136904829E+00
  2.082834547687E+00  2.107828562259E+00  2.133122505006E+00  2.158719975066E+00
  2.184624614767E+00  2.210840110144E+00  2.237370191466E+00  2.264218633764E+00
  2.291389257369E+00  2.318885928457E+00  2.346712559599E+00  2.374873110314E+00
  2.403371587638E+00  2.432212046689E+00  2.461398591250E+00  2.490935374345E+00
  2.520826598837E+00  2.551076518023E+00  2.581689436239E+00  2.612669709474E+00
  2.644021745988E+00  2.675750006939E+00  2.707859007023E+00  2.740353315107E+00
  2.773237554888E+00  2.806516405547E+00  2.840194602413E+00  2.874276937642E+00
  2.908768260894E+00  2.943673480025E+00  2.978997561785E+00  3.014745532527E+00
  3.050922478917E+00  3.087533548664E+00  3.124583951248E+00  3.162078958663E+00
  3.200023906167E+00  3.238424193041E+00  3.277285283357E+00  3.316612706758E+00
  3.356412059239E+00  3.396689003950E+00  3.437449271997E+00  3.478698663261E+00
  3.520443047220E+00  3.562688363787E+00  3.605440624152E+00  3.648705911642E+00
  3.692490382582E+00  3.736800267173E+00  3.781641870379E+00  3.827021572823E+00
  3.872945831697E+00  3.919421181678E+00  3.966454235858E+00  4.014051686688E+00
  4.062220306928E+00  4.110966950611E+00  4.160298554019E+00  4.210222136667E+00
  4.260744802307E+00  4.311873739935E+00  4.363616224814E+00  4.415979619512E+00
  4.468971374946E+00  4.522599031445E+00  4.576870219822E+00  4.631792662460E+00
  4.687374174410E+00  4.743622664503E+00  4.800546136477E+00  4.858152690114E+00
  4.916450522396E+00  4.975447928665E+00  5.035153303809E+00  5.095575143454E+00
  5.156722045176E+00  5.218602709718E+00  5.281225942234E+00  5.344600653541E+00
  5.408735861384E+00  5.473640691720E+00  5.539324380021E+00  5.605796272581E+00
  5.673065827852E+00  5.741142617786E+00  5.810036329200E+00  5.879756765150E+00
  5.950313846332E+00  6.021717612488E+00  6.093978223838E+00  6.167105962524E+00
  6.241111234074E+00  6.316004568883E+00  6.391796623710E+00  6.468498183194E+00
  6.546120161393E+00  6.624673603329E+00  6.704169686569E+00  6.784619722808E+00
  6.866035159482E+00  6.948427581396E+00  7.031808712372E+00  7.116190416921E+00
  7.201584701924E+00  7.288003718347E+00  7.375459762967E+00  7.463965280123E+00
  7.553532863484E+00  7.644175257846E+00  7.735905360940E+00  7.828736225271E+00
  7.922681059975E+00  8.017753232694E+00  8.113966271487E+00  8.211333866745E+00
  8.309869873145E+00  8.409588311623E+00  8.510503371363E+00  8.612629411819E+00
  8.715980964761E+00  8.820572736338E+00  8.926419609174E+00  9.033536644484E+00
  9.141939084218E+00  9.251642353229E+00  9.362662061467E+00  9.475014006205E+00
  9.588714174279E+00  9.703778744371E+00  9.820224089303E+00  9.938066778375E+00
  1.005732357972E+01  1.017801146267E+01  1.030014760022E+01  1.042374937143E+01
  1.054883436388E+01  1.067542037625E+01  1.080352542077E+01  1.093316772581E+01
  1.106436573852E+01  1.119713812739E+01  1.133150378492E+01  1.146748183033E+01
  1.160509161230E+01  1.174435271165E+01  1.188528494419E+01  1.202790836352E+01
  1.217224326388E+01  1.231831018304E+01  1.246612990524E+01  1.261572346410E+01
  1.276711214567E+01  1.292031749142E+01  1.307536130132E+01  1.323226563693E+01
  1.339105282458E+01  1.355174545847E+01  1.371436640397E+01  1.387893880082E+01
  1.404548606643E+01  1.421403189923E+01  1.438460028202E+01  1.455721548540E+01
  1.473190207123E+01  1.490868489608E+01  1.508758911484E+01  1.526864018421E+01
  1.545186386642E+01  1.563728623282E+01  1.582493366762E+01  1.601483287163E+01
  1.620701086609E+01  1.640149499648E+01  1.659831293644E+01  1.679749269167E+01
  1.699906260397E+01  1.720305135522E+01  1.740948797149E+01  1.761840182714E+01
  1.782982264907E+01  1.804378052086E+01  1.826030588711E+01  1.847942955775E+01
  1.870118271245E+01  1.892559690500E+01  1.915270406786E+01  1.938253651667E+01
  1.961512695487E+01  1.985050847833E+01  2.008871458007E+01  2.032977915503E+01
  2.057373650489E+01  2.082062134295E+01  2.107046879906E+01  2.132331442465E+01
  2.157919419775E+01  2.183814452812E+01  2.210020226246E+01  2.236540468961E+01
  2.263378954588E+01  2.290539502043E+01  2.318025976068E+01  2.345842287781E+01
  2.373992395234E+01  2.402480303977E+01  2.431310067625E+01  2.460485788436E+01
  2.490011617897E+01  2.519891757312E+01  2.550130458400E+01  2.580732023901E+01
  2.611700808187E+01  2.643041217886E+01  2.674757712500E+01  2.706854805050E+01
  2.739337062711E+01  2.772209107463E+01  2.805475616753E+01  2.839141324154E+01
  2.873211020044E+01  2.907689552284E+01  2.942581826912E+01  2.977892808835E+01
  3.013627522541E+01  3.049791052811E+01  3.086388545445E+01  3.123425207990E+01
  3.160906310486E+01  3.198837186212E+01  3.237223232447E+01  3.276069911236E+01
  3.315382750171E+01  3.355167343173E+01  3.395429351291E+01  3.436174503506E+01
  3.477408597549E+01  3.519137500719E+01  3.561367150728E+01  3.604103556537E+01
  3.647352799215E+01  3.691121032806E+01  3.735414485199E+01  3.780239459022E+01
  3.825602332530E+01  3.871509560520E+01  3.917967675246E+01  3.964983287349E+01
  4.012563086798E+01  4.060713843839E+01  4.109442409965E+01  4.158755718885E+01
  4.208660787511E+01  4.259164716962E+01  4.310274693565E+01  4.361997989888E+01
  4.414341965767E+01
</grid-data>
</grid>
<valence-charge total-charge="19" is-unscreening-charge="yes"
 rescaled-to-z-pseudo="no">
<radfunc>
<data npts="457">
  1.810012300377E+01  1.811041865885E+01  1.814119138466E+01  1.819251623746E+01
  1.826384498732E+01  1.835758088101E+01  1.847695725540E+01  1.861353095946E+01
  1.878296551499E+01  1.896592117763E+01  1.917185146837E+01  1.939533061374E+01
  1.966492422533E+01  1.994590612226E+01  2.022600296408E+01  2.054789006965E+01
  2.091756151808E+01  2.126698296198E+01  2.165864045255E+01  2.209733543379E+01
  2.258832909554E+01  2.302261939159E+01  2.349720756861E+01  2.401545651630E+01
  2.458092446440E+01  2.519735503970E+01  2.586866030396E+01  2.641058549773E+01
  2.698740794443E+01  2.760090153573E+01  2.825284795435E+01  2.894501894098E+01
  2.967915470648E+01  3.045693790670E+01  3.127996253750E+01  3.214969704942E+01
  3.306744092753E+01  3.403427393704E+01  3.470651008663E+01  3.540108167199E+01
  3.611806529402E+01  3.685744836200E+01  3.761911723232E+01  3.840284436139E+01
  3.920827444459E+01  4.003490952264E+01  4.088209304996E+01  4.174899293511E+01
  4.263458358351E+01  4.353762699606E+01  4.445665300606E+01  4.538993877050E+01
  4.633548767117E+01  4.729100782674E+01  4.825389046913E+01  4.922118849650E+01
  5.018959558140E+01  5.115542628551E+01  5.211459771205E+01  5.306261331262E+01
  5.399454955539E+01  5.490504625503E+01  5.578830145925E+01  5.663807187867E+01
  5.744767993281E+01  5.821002856027E+01  5.891762499920E+01  5.924844959625E+01
  5.956261477938E+01  5.985908967565E+01  6.013682716986E+01  6.039476603543E+01
  6.063183328913E+01  6.084694677683E+01  6.103901799703E+01  6.120695516738E+01
  6.134966653869E+01  6.146606395930E+01  6.155506669132E+01  6.161560547836E+01
  6.164662686268E+01  6.164709774739E+01  6.161601019706E+01  6.155238646767E+01
  6.145528425385E+01  6.132380213886E+01  6.115708522915E+01  6.095433095243E+01
  6.071479499458E+01  6.043779734714E+01  6.012272843341E+01  5.976905527750E+01
  5.937632767671E+01  5.894418433396E+01  5.847235890301E+01  5.796068589567E+01
  5.740910639669E+01  5.681767352869E+01  5.618655760643E+01  5.551605091730E+01
  5.480657206268E+01  5.405866979308E+01  5.327302626936E+01  5.245045968171E+01
  5.159192615899E+01  5.069852090227E+01  4.977147847906E+01  4.881217221817E+01
  4.782211264983E+01  4.680294494167E+01  4.575644528792E+01  4.468451621812E+01
  4.358918080051E+01  4.247257572673E+01  4.133694327613E+01  4.018462217120E+01
  3.901803734976E+01  3.783968869457E+01  3.665213877661E+01  3.545799968443E+01
  3.425991902827E+01  3.306056522391E+01  3.186261217707E+01  3.066872350433E+01
  2.948153644047E+01  2.830364559488E+01  2.713758673024E+01  2.598582074514E+01
  2.485071804840E+01  2.373454351565E+01  2.263944221841E+01  2.156742611256E+01
  2.052036186524E+01  1.949995998875E+01  1.850776543478E+01  1.754514978422E+01
  1.661330514598E+01  1.571323985336E+01  1.484577601895E+01  1.401154897956E+01
  1.321100863152E+01  1.244442262458E+01  1.171188135115E+01  1.101330463605E+01
  1.034845000285E+01  9.716922365555E+00  9.118184970642E+00  8.551571394509E+00
  8.016298385778E+00  7.511479331314E+00  7.036138119417E+00  6.589223173560E+00
  6.169621435334E+00  5.776172085676E+00  5.407679808637E+00  5.062927735287E+00
  4.740690766464E+00  4.439748422673E+00  4.158893884085E+00  3.896942008009E+00
  3.652736180806E+00  3.425154065507E+00  3.213111835051E+00  3.015565872564E+00
  2.831513228689E+00  2.659995145539E+00  2.500099807491E+00  2.350964497464E+00
  2.211777149247E+00  2.081777340778E+00  1.960256772263E+00  1.846559271121E+00
  1.740080363350E+00  1.640266448205E+00  1.546613610294E+00  1.458666100410E+00
  1.376014513581E+00  1.298293689960E+00  1.225180361198E+00  1.156389028971E+00
  1.091661676279E+00  1.030754320841E+00  9.734365313018E-01  9.194907664235E-01
  8.687118277286E-01  8.209063162142E-01  7.758920953618E-01  7.334977624060E-01
  6.935621295815E-01  6.559337168406E-01  6.204702573157E-01  5.870382166007E-01
  5.555123267331E-01  5.257751355877E-01  4.977165722287E-01  4.712335286211E-01
  4.462294579657E-01  4.226139898016E-01  4.003025619103E-01  3.792160689567E-01
  3.592805277153E-01  3.404267586560E-01  3.225900835941E-01  3.057100390546E-01
  2.897301049534E-01  2.745974481528E-01  2.602626804236E-01  2.466796303125E-01
  2.338051283978E-01  2.215988054021E-01  2.100229026184E-01  1.990420941057E-01
  1.886233201054E-01  1.787356311341E-01  1.693500422169E-01  1.604393967291E-01
  1.519782393293E-01  1.439426974777E-01  1.363103710501E-01  1.290602295699E-01
  1.221725166037E-01  1.156286608775E-01  1.094111936942E-01  1.035036722479E-01
  9.789060845338E-02  9.255740292364E-02  8.749028375317E-02  8.267624977763E-02
  7.810301800318E-02  7.375897491477E-02  6.963313139087E-02  6.571508096891E-02
  6.199496122189E-02  5.846341802261E-02  5.511157248621E-02  5.193099039667E-02
  4.891365393558E-02  4.605193554447E-02  4.333857376378E-02  4.076665090243E-02
  3.832957240247E-02  3.602104777262E-02  3.383507297344E-02  3.176591414504E-02
  2.980809257567E-02  2.795637081639E-02  2.620573985346E-02  2.455140725574E-02
  2.298878622059E-02  2.151348544369E-02  2.012129974800E-02  1.880820140665E-02
  1.757033210053E-02  1.640399545501E-02  1.530565010365E-02  1.427190323015E-02
  1.329950454322E-02  1.238534064208E-02  1.152642973349E-02  1.071991666430E-02
  9.963068236090E-03  9.253268771788E-03  8.588015906482E-03  7.964916577571E-03
  7.381683191826E-03  6.836129949458E-03  6.326169307589E-03  5.849808567737E-03
  5.405146574036E-03  4.990370510792E-03  4.603752789828E-03  4.243648019668E-03
  3.908490050103E-03  3.596789087040E-03  3.307128873689E-03  3.038163935191E-03
  2.788616884669E-03  2.557275789443E-03  2.342991596756E-03  2.144675618845E-03
  1.961297077571E-03  1.791880709088E-03  1.635504429178E-03  1.491297059991E-03
  1.358436118893E-03  1.236145670097E-03  1.123694239603E-03  1.020392793841E-03
  9.255927821939E-04  8.386842433717E-04  7.590939753967E-04  6.862837687078E-04
  6.197487016942E-04  5.590154977516E-04  5.036409427736E-04  4.532103618317E-04
  4.073361536624E-04  3.656563814825E-04  3.278334185794E-04  2.935526470844E-04
  2.625212083212E-04  2.344668031357E-04  2.091365406420E-04  1.862958338753E-04
  1.657273408990E-04  1.472299499918E-04  1.306178076137E-04  1.157193879291E-04
  1.023766027430E-04  9.044395077468E-05  7.978770525912E-05  7.028513892055E-05
  6.182378540768E-05  5.430073631482E-05  4.762197293738E-05  4.170173192408E-05
  3.646190399331E-05  3.183146487753E-05  2.774593764927E-05  2.414688556612E-05
  2.098143455209E-05  1.820182440908E-05  1.576498783004E-05  1.363215625496E-05
  1.176849158493E-05  1.014274282890E-05  8.726926504346E-06  7.496028906566E-06
  6.427737792820E-06  5.502166772343E-06  4.701660167422E-06  4.010552452898E-06
  3.414967443898E-06  2.902648609829E-06  2.462762920542E-06  2.085756896221E-06
  1.763234428286E-06  1.487832475688E-06  1.253106068690E-06  1.053424848978E-06
  8.838797820597E-07  7.401992305918E-07  6.186736194180E-07  5.160879656626E-07
  4.296615898761E-07  3.569943666175E-07  2.960189146820E-07  2.449581681750E-07
  2.022878095537E-07  1.667030844092E-07  1.370895549713E-07  1.124973849514E-07
  9.211878228845E-08  7.526825855455E-08  6.136539415492E-08  4.991982700065E-08
  4.051820903289E-08  3.281289985036E-08  2.651218976794E-08  2.137186595858E-08
  1.718795496034E-08  1.379049283093E-08  1.103819067906E-08  8.813878273295E-09
  7.020622009862E-09  5.578425795871E-09  4.421434461651E-09  3.495569241120E-09
  2.756533738947E-09  2.168136718844E-09  1.700885136134E-09  1.330806668594E-09
  9.868222967927E-10  7.686061343766E-10  5.970051419205E-10  4.624322207576E-10
  3.571907074128E-10  2.751188387379E-10  2.112975605522E-10  1.618110865529E-10
  1.235512553285E-10  9.405814367877E-11  7.139060248844E-11  5.402141268019E-11
  4.075263618885E-11  3.064748090180E-11  2.297562725067E-11  1.716949367407E-11
  1.278936263389E-11  9.495660650113E-12  7.026995734780E-12  5.182813057469E-12
  3.809742797809E-12  2.790889950231E-12  2.037460363055E-12  1.482235665853E-12
  1.074506348529E-12  7.761508189827E-13  5.586119220443E-13  4.005737899436E-13
  2.861832248546E-13  2.036929311769E-13  1.444303513253E-13  1.020168814215E-13
  7.177889678367E-14  5.030515836624E-14  3.511550046009E-14  2.441378667293E-14
  1.690442702383E-14  1.165664625969E-14  8.004481360198E-15  5.473403898012E-15
  3.726701003115E-15  2.526458226776E-15  1.705287875648E-15  1.145931121787E-15
  7.666047225626E-16  5.105206206135E-16  3.384233186671E-16  2.232999093430E-16
  1.466472347178E-16  9.584992235836E-17  6.234726374871E-17  4.035762978382E-17
  2.599507753857E-17  1.666049649435E-17  1.062405154838E-17  6.740182576455E-18
  4.254081562384E-18  2.670949254375E-18  1.668106680248E-18  1.036221793872E-18
  6.402128074719E-19  3.933783056763E-19  2.403710663369E-19  1.460530650828E-19
  8.824019239540E-20  5.300534422796E-20  3.165485404723E-20  0.000000000000E+00
  0.000000000000E+00  0.000000000000E+00  0.000000000000E+00  0.000000000000E+00
  0.000000000000E+00  0.000000000000E+00  0.000000000000E+00  0.000000000000E+00
  0.000000000000E+00  0.000000000000E+00  0.000000000000E+00  0.000000000000E+00
  0.000000000000E+00  0.000000000000E+00  0.000000000000E+00  0.000000000000E+00
  0.000000000000E+00
</data>
</radfunc>
</valence-charge>
<pseudocore-charge matching-radius="0.369386024037"
 number-of-continuous-derivatives="4">
<annotation model-charge-form="Teter function with specified parameters" />
<radfunc>
<data npts="290">
  2.828252759495E+02  2.827461405350E+02  2.825096736011E+02  2.821154837231E+02
  2.815680853000E+02  2.808494825938E+02  2.799355533572E+02  2.788916646544E+02
  2.775991253350E+02  2.762065645159E+02  2.746430053925E+02  2.729508317834E+02
  2.709158732295E+02  2.688023670951E+02  2.667030232233E+02  2.642996774537E+02
  2.615516661296E+02  2.589660389193E+02  2.560815030726E+02  2.528675558955E+02
  2.492916661353E+02  2.461473056091E+02  2.427309851702E+02  2.390238571101E+02
  2.350067493525E+02  2.306603998581E+02  2.259657521681E+02  2.222050420872E+02
  2.182305484460E+02  2.140352666138E+02  2.096127743873E+02  2.049573893361E+02
  2.000643442403E+02  1.949299809129E+02  1.895519622557E+02  1.839295018223E+02
  1.780636094353E+02  1.719573505144E+02  1.677555323337E+02  1.634514548636E+02
  1.590478960955E+02  1.545482199659E+02  1.499564112886E+02  1.452771091373E+02
  1.405156380222E+02  1.356780361289E+02  1.307710798062E+02  1.258023034151E+02
  1.207800135790E+02  1.157132968060E+02  1.106120194015E+02  1.054868185463E+02
  1.003490833918E+02  9.521092502453E+01  9.008513418111E+01  8.498512565912E+01
  7.992486847278E+01  7.491880095489E+01  6.998173020941E+01  6.512871558140E+01
  6.037493613475E+01  5.573554251691E+01  5.122549404452E+01  4.685938236184E+01
  4.265124360110E+01  3.861436159914E+01  3.476106538593E+01  3.290680336939E+01
  3.110252483666E+01  2.934941180896E+01  2.764854904508E+01  2.600091825968E+01
  2.440739260112E+01  2.286873143758E+01  2.138557550167E+01  1.995844244424E+01
  1.858772284831E+01  1.727367675376E+01  1.601643074250E+01  1.481597563259E+01
  1.367216482743E+01  1.258471336376E+01  1.155319769836E+01  1.057705626946E+01
  9.655590863914E+00  8.787968815348E+00  7.973226052203E+00  7.210271007439E+00
  6.497889393733E+00  5.834749839488E+00  5.219410371894E+00  4.650325723585E+00
  4.125855429402E+00  3.644272669385E+00  3.203773803571E+00  2.802488533610E+00
  2.438490615764E+00  2.109809039794E+00  1.814439578609E+00  1.550356604767E+00
  1.315525061980E+00  1.107912473083E+00  9.255008605450E-01  7.662984518993E-01
  6.283510404875E-01  5.097528719435E-01  4.086569290072E-01  3.232844916585E-01
  2.519338563131E-01  1.929881069407E-01  1.449218424481E-01  1.063067784391E-01
  7.581615738064E-02  5.222791907615E-02  3.442660289546E-02  2.140397410565E-02
  1.225838848316E-02  6.192931706895E-03  2.512392320837E-03  6.191487596972E-04
  8.071472038638E-06  2.605599586407E-04  1.037850984786E-03  2.073747765463E-03
  3.166930054028E-03  4.173011351761E-03  4.996511557045E-03  5.582911063966E-03
  5.910945511688E-03  5.985289139535E-03  5.829759241489E-03  5.481154927342E-03
  4.983820839963E-03  4.385001357415E-03  3.731023969548E-03  3.064322915663E-03
  2.421286831997E-03  1.830888147451E-03  1.314028330654E-03  8.835128118252E-04
  5.445533403836E-04  2.956843839069E-04  1.299743983364E-04  3.641261993871E-05
  1.357380611375E-06  9.942469878066E-06  4.735311098326E-05  9.990177226874E-05
  1.558551650796E-04  2.059860930798E-04  2.438459400657E-04  2.657741453508E-04
  2.706787492135E-04  2.596359211801E-04  2.353655150290E-04  2.016436772730E-04
  1.627123132367E-04  1.227391362460E-04  8.537182868277E-05  5.341660101302E-05
  2.865646636200E-05  1.180930710576E-05  2.611749887843E-06  3.300658989672E-09
  2.377164156124E-06  7.860342865414E-06  1.458618241956E-05  2.092722282982E-05
  2.566428926195E-05  2.807809641065E-05  2.796088339901E-05  2.555629558481E-05
  2.144453950660E-05  1.639568710193E-05  1.121624626417E-05  6.612611521416E-06
  3.090162147097E-06  8.994673335527E-07  3.252239282444E-08  0.000000000000E+00
  0.000000000000E+00  0.000000000000E+00  0.000000000000E+00  0.000000000000E+00
  0.000000000000E+00  0.000000000000E+00  0.000000000000E+00  0.000000000000E+00
  0.000000000000E+00  0.000000000000E+00  0.000000000000E+00  0.000000000000E+00
  0.000000000000E+00  0.000000000000E+00  0.000000000000E+00  0.000000000000E+00
  0.000000000000E+00  0.000000000000E+00  0.000000000000E+00  0.000000000000E+00
  0.000000000000E+00  0.000000000000E+00  0.000000000000E+00  0.000000000000E+00
  0.000000000000E+00  0.000000000000E+00  0.000000000000E+00  0.000000000000E+00
  0.000000000000E+00  0.000000000000E+00  0.000000000000E+00  0.000000000000E+00
  0.000000000000E+00  0.000000000000E+00  0.000000000000E+00  0.000000000000E+00
  0.000000000000E+00  0.000000000000E+00  0.000000000000E+00  0.000000000000E+00
  0.000000000000E+00  0.000000000000E+00  0.000000000000E+00  0.000000000000E+00
  0.000000000000E+00  0.000000000000E+00  0.000000000000E+00  0.000000000000E+00
  0.000000000000E+00  0.000000000000E+00  0.000000000000E+00  0.000000000000E+00
  0.000000000000E+00  0.000000000000E+00  0.000000000000E+00  0.000000000000E+00
  0.000000000000E+00  0.000000000000E+00  0.000000000000E+00  0.000000000000E+00
  0.000000000000E+00  0.000000000000E+00  0.000000000000E+00  0.000000000000E+00
  0.000000000000E+00  0.000000000000E+00  0.000000000000E+00  0.000000000000E+00
  0.000000000000E+00  0.000000000000E+00  0.000000000000E+00  0.000000000000E+00
  0.000000000000E+00  0.000000000000E+00  0.000000000000E+00  0.000000000000E+00
  0.000000000000E+00  0.000000000000E+00  0.000000000000E+00  0.000000000000E+00
  0.000000000000E+00  0.000000000000E+00  0.000000000000E+00  0.000000000000E+00
  0.000000000000E+00  0.000000000000E+00  0.000000000000E+00  0.000000000000E+00
  0.000000000000E+00  0.000000000000E+00  0.000000000000E+00  0.000000000000E+00
  0.000000000000E+00  0.000000000000E+00  0.000000000000E+00  0.000000000000E+00
  0.000000000000E+00  0.000000000000E+00  0.000000000000E+00  0.000000000000E+00
  0.000000000000E+00  0.000000000000E+00  0.000000000000E+00  0.000000000000E+00
  0.000000000000E+00  0.000000000000E+00  0.000000000000E+00  0.000000000000E+00
  0.000000000000E+00  0.000000000000E+00
</data>
</radfunc>
</pseudocore-charge>
<semilocal-potentials set="scalar_relativistic">
<slps n="3" l="s" rc="1.20323705346">
<radfunc>
<data npts="290">
 -2.831756632797E+01 -2.831782793045E+01 -2.831860892351E+01 -2.831991315241E+01
 -2.832172946347E+01 -2.832412298900E+01 -2.832718202626E+01 -2.833069632595E+01
 -2.833507737782E+01 -2.833983375680E+01 -2.834521849089E+01 -2.835109822413E+01
 -2.835823956489E+01 -2.836573669812E+01 -2.837326295663E+01 -2.838197432002E+01
 -2.839205698263E+01 -2.840166007946E+01 -2.841250324199E+01 -2.842474214082E+01
 -2.843854915964E+01 -2.845085066129E+01 -2.846438181785E+01 -2.847925448861E+01
 -2.849558683425E+01 -2.851350242717E+01 -2.853312889076E+01 -2.854904952283E+01
 -2.856606015050E+01 -2.858421442973E+01 -2.860356399893E+01 -2.862415723610E+01
 -2.864603775598E+01 -2.866924260600E+01 -2.869380011470E+01 -2.871972733937E+01
 -2.874702705361E+01 -2.877568420723E+01 -2.879552587401E+01 -2.881593758128E+01
 -2.883689596748E+01 -2.885837087950E+01 -2.888032449886E+01 -2.890271038121E+01
 -2.892547240235E+01 -2.894854360403E+01 -2.897184493273E+01 -2.899528386461E+01
 -2.901875291107E+01 -2.904212799691E+01 -2.906526671056E+01 -2.908800641946E+01
 -2.911016225321E+01 -2.913152495776E+01 -2.915185863168E+01 -2.917089836520E+01
 -2.918834781754E+01 -2.920387678990E+01 -2.921711888281E+01 -2.922766936985E+01
 -2.923508347678E+01 -2.923887532637E+01 -2.923851788793E+01 -2.923344434546E+01
 -2.922305134207E+01 -2.920670453229E+01 -2.918374672404E+01 -2.916957966096E+01
 -2.915350856597E+01 -2.913544995170E+01 -2.911532120663E+01 -2.909304100194E+01
 -2.906852966107E+01 -2.904170947205E+01 -2.901250492283E+01 -2.898084284207E+01
 -2.894665243223E+01 -2.890986518702E+01 -2.887041469358E+01 -2.882823632764E+01
 -2.878326685928E+01 -2.873544399457E+01 -2.868470588523E+01 -2.863099064251E+01
 -2.857423589207E+01 -2.851437840494E+01 -2.845135383402E+01 -2.838509657830E+01
 -2.831553978783E+01 -2.824261551351E+01 -2.816625499675E+01 -2.808638908710E+01
 -2.800294877008E+01 -2.791586578385E+01 -2.782507330092E+01 -2.773050664990E+01
 -2.763210405165E+01 -2.752980734401E+01 -2.742356266878E+01 -2.731332109495E+01
 -2.719903915231E+01 -2.708067925127E+01 -2.695820996723E+01 -2.683160617245E+01
 -2.670084900404E+01 -2.656592566487E+01 -2.642682906225E+01 -2.628355729825E+01
 -2.613611303400E+01 -2.598450275656E+01 -2.582873598215E+01 -2.566882443128E+01
 -2.550478121117E+01 -2.533662003811E+01 -2.516435452801E+01 -2.498799757825E+01
 -2.480756085842E+01 -2.462305442288E+01 -2.443448645445E+01 -2.424186314664E+01
 -2.404518873180E+01 -2.384446566417E+01 -2.363969497026E+01 -2.343087678336E+01
 -2.321801108479E+01 -2.300109868032E+01 -2.278014244652E+01 -2.255514888740E+01
 -2.232613004727E+01 -2.209310582945E+01 -2.185610677363E+01 -2.161517734509E+01
 -2.137037978839E+01 -2.112179859359E+01 -2.086954561673E+01 -2.061376588532E+01
 -2.035464410555E+01 -2.009241186816E+01 -1.982735552640E+01 -1.955982468917E+01
 -1.929024123755E+01 -1.901910873123E+01 -1.874702202484E+01 -1.847467686231E+01
 -1.820287916226E+01 -1.793255365086E+01 -1.766475144350E+01 -1.740065612765E+01
 -1.714158786158E+01 -1.688900498394E+01 -1.664450263602E+01 -1.640980794033E+01
 -1.618677136551E+01 -1.597735395765E+01 -1.578361157653E+01 -1.559937664622E+01