<?xml version="1.0" encoding="UTF-8" ?>
<psml version="1.1" energy_unit="hartree" length_unit="bohr"
 uuid="51cbb340-515e-11e8-4b6b-81e8b9e9c46c"
 xmlns="http://esl.cecam.org/PSML/ns/1.1">
<provenance creator="ONCVPSP-3.3.0+psml-3.3.0-73 (fully-relativistic)"
 date="2018-05-06">
<annotation action="semilocal-pseudopotential-generation"
 action-cont="projectors-generation" />
<input-file name="oncvpsp-input">
<![CDATA[# atsym z nc nv iexc psfile
Fe 26 3 4 4 both
# n l f
1 0 2.0
2 0 2.0
2 1 6.0
3 0 2.0
3 1 6.0
3 2 6.0
4 0 2.0
# lmax
2
# l rc ep ncon nbas qcut
0 1.1 0.0 3 7 10.3
1 1.1 0.0 3 7 9.2
2 1.35 0.0 3 7 10.8
# lloc lpopt rc5 dvloc0
4 5 1.1 0.0
# l nproj debl
0 2 1.0
1 2 0.8
2 2 0.8
# icmod fcfact
3 3.0 1.7
# epsh1 epsh2 depsh
-24.0 12.0 0.02
# rlmax drl
6.0 0.01
 0
]]>
</input-file>
</provenance>
<pseudo-atom-spec atomic-label="Fe" atomic-number="26" z-pseudo="16"
 flavor="Hamann&apos;s oncvpsp" relativity="dirac" spin-dft="no"
 core-corrections="yes">
<annotation pseudo-energy="-122.666911720" />
<exchange-correlation>
<annotation oncvpsp-xc-code="4" oncvpsp-xc-type="GGA -- Perdew-Burke-Ernzerhof" />
<libxc-info number-of-functionals="2">
<functional name="Perdew, Burke &amp; Ernzerhof (GGA)" type="exchange" id="101" />
<functional name="Perdew, Burke &amp; Ernzerhof (GGA)" type="correlation"
 id="130" />
</libxc-info>
</exchange-correlation>
<valence-configuration total-valence-charge="16">
<shell n="3" l="s" occupation="2" />
<shell n="3" l="p" occupation="6" />
<shell n="3" l="d" occupation="6" />
<shell n="4" l="s" occupation="2" />
</valence-configuration>
</pseudo-atom-spec>
<grid npts="457">
<annotation type="sampled from oncvpsp log grid"
 recipe="r(i:1..N) = r1*exp(a*(i-1)) + r=0; resampled"
 recipe-cont="r1: scale; a: step" scale="0.192307692308E-04"
 step="0.119285708653E-01" delta="0.500000000000E-02" rmax="44.2248135897" />
<grid-data>
  0.000000000000E+00  5.050053692967E-03  1.008708593772E-02  1.513223739776E-02
  2.014816255451E-02  2.527348802918E-02  3.058816214668E-02  3.571906205505E-02
  4.072730601400E-02  4.588712082187E-02  5.108759065353E-02  5.620300303659E-02
  6.183062285620E-02  6.721515569429E-02  7.306860171076E-02  7.848991730107E-02
  8.431346671058E-02  8.949515180459E-02  9.499528970881E-02  1.008334516999E-01
  1.070304118539E-01  1.122610879123E-01  1.177473919885E-01  1.235018168622E-01
  1.295374658469E-01  1.358680826271E-01  1.425080825541E-01  1.477001832717E-01
  1.530814515745E-01  1.586587795431E-01  1.644393103617E-01  1.704304474680E-01
  1.766398640339E-01  1.830755127941E-01  1.897456362307E-01  1.966587771303E-01
  2.038237895251E-01  2.112498500326E-01  2.163502664118E-01  2.215738272440E-01
  2.269235057290E-01  2.324023468513E-01  2.380134691137E-01  2.437600663120E-01
  2.496454093530E-01  2.556728481164E-01  2.618458133614E-01  2.681678186792E-01
  2.746424624934E-01  2.812734301078E-01  2.880644958043E-01  2.950195249910E-01
  3.021424764024E-01  3.094374043527E-01  3.169084610433E-01  3.245598989268E-01
  3.323960731265E-01  3.404214439160E-01  3.486405792579E-01  3.570581574035E-01
  3.656789695559E-01  3.745079225969E-01  3.835500418800E-01  3.928104740912E-01
  4.022944901776E-01  4.120074883485E-01  4.219549971472E-01  4.270184571129E-01
  4.321426785983E-01  4.373283907415E-01  4.425763314304E-01  4.478872474075E-01
  4.532618943764E-01  4.587010371089E-01  4.642054495543E-01  4.697759149489E-01
  4.754132259283E-01  4.811181846394E-01  4.868916028551E-01  4.927343020894E-01
  4.986471137144E-01  5.046308790790E-01  5.106864496280E-01  5.168146870235E-01
  5.230164632678E-01  5.292926608270E-01  5.356441727569E-01  5.420719028300E-01
  5.485767656640E-01  5.551596868519E-01  5.618216030941E-01  5.685634623313E-01
  5.753862238793E-01  5.822908585658E-01  5.892783488686E-01  5.963496890550E-01
  6.035058853237E-01  6.107479559476E-01  6.180769314189E-01  6.254938545960E-01
  6.329997808511E-01  6.405957782213E-01  6.482829275600E-01  6.560623226907E-01
  6.639350705630E-01  6.719022914097E-01  6.799651189067E-01  6.881247003335E-01
  6.963821967375E-01  7.047387830984E-01  7.131956484956E-01  7.217539962775E-01
  7.304150442328E-01  7.391800247636E-01  7.480501850608E-01  7.570267872815E-01
  7.661111087289E-01  7.753044420337E-01  7.846080953381E-01  7.940233924821E-01
  8.035516731919E-01  8.131942932702E-01  8.229526247895E-01  8.328280562869E-01
  8.428219929624E-01  8.529358568779E-01  8.631710871605E-01  8.735291402064E-01
  8.840114898889E-01  8.946196277675E-01  9.053550633007E-01  9.162193240603E-01
  9.272139559491E-01  9.383405234205E-01  9.496006097015E-01  9.609958170179E-01
  9.725277668221E-01  9.841981000240E-01  9.960084772243E-01  1.007960578951E+00
  1.020056105898E+00  1.032296779169E+00  1.044684340519E+00  1.057220552605E+00
  1.069907199237E+00  1.082746085628E+00  1.095739038655E+00  1.108887907119E+00
  1.122194562004E+00  1.135660896748E+00  1.149288827509E+00  1.163080293440E+00
  1.177037256961E+00  1.191161704044E+00  1.205455644493E+00  1.219921112227E+00
  1.234560165573E+00  1.249374887560E+00  1.264367386211E+00  1.279539794846E+00
  1.294894272384E+00  1.310433003652E+00  1.326158199696E+00  1.342072098093E+00
  1.358176963270E+00  1.374475086829E+00  1.390968787871E+00  1.407660413325E+00
  1.424552338285E+00  1.441646966345E+00  1.458946729941E+00  1.476454090700E+00
  1.494171539788E+00  1.512101598266E+00  1.530246817445E+00  1.548609779254E+00
  1.567193096605E+00  1.585999413765E+00  1.605031406730E+00  1.624291783611E+00
  1.643783285014E+00  1.663508684434E+00  1.683470788647E+00  1.703672438111E+00
  1.724116507368E+00  1.744805905457E+00  1.765743576322E+00  1.786932499238E+00
  1.808375689229E+00  1.830076197500E+00  1.852037111870E+00  1.874261557212E+00
  1.896752695899E+00  1.919513728250E+00  1.942547892989E+00  1.965858467705E+00
  1.989448769317E+00  2.013322154549E+00  2.037482020403E+00  2.061931804648E+00
  2.086674986304E+00  2.111715086140E+00  2.137055667173E+00  2.162700335179E+00
  2.188652739202E+00  2.214916572072E+00  2.241495570937E+00  2.268393517788E+00
  2.295614240002E+00  2.323161610882E+00  2.351039550212E+00  2.379252024815E+00
  2.407803049112E+00  2.436696685702E+00  2.465937045930E+00  2.495528290481E+00
  2.525474629967E+00  2.555780325527E+00  2.586449689433E+00  2.617487085706E+00
  2.648896930735E+00  2.680683693904E+00  2.712851898230E+00  2.745406121009E+00
  2.778350994461E+00  2.811691206395E+00  2.845431500872E+00  2.879576678882E+00
  2.914131599029E+00  2.949101178217E+00  2.984490392356E+00  3.020304277064E+00
  3.056547928389E+00  3.093226503529E+00  3.130345221572E+00  3.167909364230E+00
  3.205924276601E+00  3.244395367920E+00  3.283328112335E+00  3.322728049683E+00
  3.362600786280E+00  3.402951995715E+00  3.443787419664E+00  3.485112868700E+00
  3.526934223124E+00  3.569257433801E+00  3.612088523007E+00  3.655433585283E+00
  3.699298788307E+00  3.743690373766E+00  3.788614658251E+00  3.834078034150E+00
  3.880086970560E+00  3.926648014207E+00  3.973767790377E+00  4.021453003862E+00
  4.069710439908E+00  4.118546965187E+00  4.167969528769E+00  4.217985163115E+00
  4.268600985072E+00  4.319824196893E+00  4.371662087256E+00  4.424122032303E+00
  4.477211496690E+00  4.530938034651E+00  4.585309291066E+00  4.640333002559E+00
  4.696016998590E+00  4.752369202573E+00  4.809397633004E+00  4.867110404600E+00
  4.925515729455E+00  4.984621918209E+00  5.044437381227E+00  5.104970629802E+00
  5.166230277360E+00  5.228225040688E+00  5.290963741176E+00  5.354455306070E+00
  5.418708769743E+00  5.483733274980E+00  5.549538074280E+00  5.616132531171E+00
  5.683526121545E+00  5.751728435004E+00  5.820749176224E+00  5.890598166338E+00
  5.961285344334E+00  6.032820768466E+00  6.105214617688E+00  6.178477193100E+00
  6.252618919418E+00  6.327650346451E+00  6.403582150608E+00  6.480425136415E+00
  6.558190238052E+00  6.636888520909E+00  6.716531183160E+00  6.797129557358E+00
  6.878695112046E+00  6.961239453391E+00  7.044774326831E+00  7.129311618753E+00
  7.214863358178E+00  7.301441718476E+00  7.389059019098E+00  7.477727727327E+00
  7.567460460055E+00  7.658269985576E+00  7.750169225403E+00  7.843171256108E+00
  7.937289311181E+00  8.032536782915E+00  8.128927224310E+00  8.226474351002E+00
  8.325192043214E+00  8.425094347732E+00  8.526195479905E+00  8.628509825664E+00
  8.732051943572E+00  8.836836566895E+00  8.942878605698E+00  9.050193148966E+00
  9.158795466753E+00  9.268701012355E+00  9.379925424503E+00  9.492484529597E+00
  9.606394343952E+00  9.721671076079E+00  9.838331128992E+00  9.956391102540E+00
  1.007586779577E+01  1.019677820932E+01  1.031913954783E+01  1.044296922241E+01
  1.056828485307E+01  1.069510427131E+01  1.082344552257E+01  1.095332686884E+01
  1.108476679126E+01  1.121778399276E+01  1.135239740067E+01  1.148862616948E+01
  1.162648968351E+01  1.176600755972E+01  1.190719965043E+01  1.205008604624E+01
  1.219468707879E+01  1.234102332374E+01  1.248911560362E+01  1.263898499087E+01
  1.279065281076E+01  1.294414064449E+01  1.309947033222E+01  1.325666397621E+01
  1.341574394392E+01  1.357673287125E+01  1.373965366570E+01  1.390452950969E+01
  1.407138386381E+01  1.424024047017E+01  1.441112335582E+01  1.458405683609E+01
  1.475906551812E+01  1.493617430434E+01  1.511540839599E+01  1.529679329674E+01
  1.548035481630E+01  1.566611907410E+01  1.585411250299E+01  1.604436185302E+01
  1.623689419526E+01  1.643173692560E+01  1.662891776871E+01  1.682846478193E+01
  1.703040635932E+01  1.723477123563E+01  1.744158849046E+01  1.765088755234E+01
  1.786269820297E+01  1.807705058140E+01  1.829397518838E+01  1.851350289064E+01
  1.873566492533E+01  1.896049290443E+01  1.918801881929E+01  1.941827504512E+01
  1.965129434566E+01  1.988710987781E+01  2.012575519634E+01  2.036726425870E+01
  2.061167142980E+01  2.085901148696E+01  2.110931962480E+01  2.136263146030E+01
  2.161898303782E+01  2.187841083428E+01  2.214095176429E+01  2.240664318546E+01
  2.267552290369E+01  2.294762917853E+01  2.322300072867E+01  2.350167673742E+01
  2.378369685827E+01  2.406910122057E+01  2.435793043521E+01  2.465022560043E+01
  2.494602830764E+01  2.524538064733E+01  2.554832521510E+01  2.585490511768E+01
  2.616516397909E+01  2.647914594684E+01  2.679689569820E+01  2.711845844658E+01
  2.744387994794E+01  2.777320650732E+01  2.810648498540E+01  2.844376280523E+01
  2.878508795889E+01  2.913050901440E+01  2.948007512257E+01  2.983383602404E+01
  3.019184205633E+01  3.055414416101E+01  3.092079389094E+01  3.129184341763E+01
  3.166734553864E+01  3.204735368511E+01  3.243192192933E+01  3.282110499248E+01
  3.321495825239E+01  3.361353775142E+01  3.401690020443E+01  3.442510300689E+01
  3.483820424297E+01  3.525626269389E+01  3.567933784621E+01  3.610748990037E+01
  3.654077977917E+01  3.697926913652E+01  3.742302036616E+01  3.787209661055E+01
  3.832656176988E+01  3.878648051112E+01  3.925191827725E+01  3.972294129658E+01
  4.019961659214E+01  4.068201199124E+01  4.117019613514E+01  4.166423848876E+01
  4.216420935063E+01  4.267017986283E+01  4.318222202119E+01  4.370040868544E+01
  4.422481358967E+01
</grid-data>
</grid>
<valence-charge total-charge="16" is-unscreening-charge="yes"
 rescaled-to-z-pseudo="no">
<radfunc>
<data npts="457">
  5.396918689886E+00  5.403941064146E+00  5.424933418665E+00  5.459956321722E+00
  5.508651049920E+00  5.572680924478E+00  5.654288349084E+00  5.747738433180E+00
  5.852815536373E+00  5.975354242931E+00  6.113477466109E+00  6.263606960063E+00
  6.445041973966E+00  6.634521394350E+00  6.858018390195E+00  7.081188298540E+00
  7.338115956519E+00  7.581586450570E+00  7.855198515641E+00  8.162564511562E+00
  8.507692190707E+00  8.813947245108E+00  9.149677154093E+00  9.517554755144E+00
  9.920453580702E+00  1.036145152181E+01  1.084383080455E+01  1.123485890857E+01
  1.165265730580E+01  1.209881979168E+01  1.257498870984E+01  1.308284621900E+01
  1.362410281268E+01  1.420048256891E+01  1.481370453426E+01  1.546545956939E+01
  1.615738190505E+01  1.689101458054E+01  1.740397877278E+01  1.793648654857E+01
  1.848886971231E+01  1.906140840424E+01  1.965432186685E+01  2.026775825225E+01
  2.090178341931E+01  2.155636867548E+01  2.223137742737E+01  2.292655071593E+01
  2.364149162792E+01  2.437564859463E+01  2.512829761386E+01  2.589852346035E+01
  2.668519998603E+01  2.748696965352E+01  2.830222249533E+01  2.912907474838E+01
  2.996534747716E+01  3.080854557125E+01  3.165583758210E+01  3.250403694991E+01
  3.334958526313E+01  3.418853828851E+01  3.501655560608E+01  3.582889477811E+01
  3.662041106980E+01  3.738556381606E+01  3.811843058829E+01  3.847080708136E+01
  3.881273034883E+01  3.914336469331E+01  3.946185678142E+01  3.976733732165E+01
  4.005892294342E+01  4.033571828414E+01  4.059681828988E+01  4.084131073457E+01
  4.106827896122E+01  4.127680484721E+01  4.146597199435E+01  4.163486914243E+01
  4.178259380319E+01  4.190825610946E+01  4.201098287191E+01  4.208992183345E+01
  4.214424610842E+01  4.217315879144E+01  4.217589771706E+01  4.215174034911E+01
  4.210000877486E+01  4.202007477626E+01  4.191136494710E+01  4.177336582169E+01
  4.160562897771E+01  4.140777607238E+01  4.117950376869E+01  4.092058850529E+01
  4.063089106157E+01  4.031036086718E+01  3.995904000374E+01  3.957706684529E+01
  3.916467928344E+01  3.872221748326E+01  3.825012611659E+01  3.774895602107E+01
  3.721936523551E+01  3.666211936505E+01  3.607809123422E+01  3.546825979026E+01
  3.483370822556E+01  3.417562129447E+01  3.349528180761E+01  3.279406629522E+01
  3.207343984028E+01  3.133495009242E+01  3.058022048340E+01  2.981094267671E+01
  2.902886829402E+01  2.823579997316E+01  2.743358182271E+01  2.662408934929E+01
  2.580921894353E+01  2.499087701984E+01  2.417096891342E+01  2.335138764465E+01
  2.253400266632E+01  2.172064871307E+01  2.091311487371E+01  2.011313400740E+01
  1.932237262212E+01  1.854242132936E+01  1.777478598279E+01  1.702087959972E+01
  1.628201515420E+01  1.555939931799E+01  1.485412721223E+01  1.416717821786E+01
  1.349941287698E+01  1.285157090120E+01  1.222427028678E+01  1.161800752031E+01
  1.103315884329E+01  1.046998252975E+01  9.928622118136E+00  9.409110527409E+00
  8.911374978233E+00  8.435242632718E+00  7.980446861453E+00  7.546634043736E+00
  7.133368603656E+00  6.740136397026E+00  6.366370790367E+00  6.011469867983E+00
  5.674800609996E+00  5.355705112391E+00  5.053506602668E+00  4.767515116275E+00
  4.497032817320E+00  4.241358936537E+00  3.999794305152E+00  3.771645466980E+00
  3.556228353958E+00  3.352871512539E+00  3.160918870224E+00  2.979732033183E+00
  2.808692107903E+00  2.647222299278E+00  2.494855815456E+00  2.351185845772E+00
  2.215799667220E+00  2.088294540395E+00  1.968278353755E+00  1.855370171490E+00
  1.749200689721E+00  1.649412605862E+00  1.555660906127E+00  1.467613076246E+00
  1.384949240496E+00  1.307362234155E+00  1.234557614497E+00  1.166253615362E+00
  1.102181050286E+00  1.042083169076E+00  9.857154725688E-01  9.328454901992E-01
  8.832525248290E-01  8.367273691032E-01  7.930719974215E-01  7.520992373952E-01
  7.136324244444E-01  6.775050429614E-01  6.435603572267E-01  6.116510350210E-01
  5.816387666282E-01  5.533938816770E-01  5.267949660195E-01  5.017284806078E-01
  4.780883840942E-01  4.557757606622E-01  4.346984543858E-01  4.147707112288E-01
  3.959128296174E-01  3.780508203677E-01  3.611160766099E-01  3.450450542308E-01
  3.297789632478E-01  3.152634704348E-01  3.014484134400E-01  2.882875265576E-01
  2.757381782540E-01  2.637611204869E-01  2.523202498003E-01  2.413823801278E-01
  2.309170271906E-01  2.208962043298E-01  2.112942295752E-01  2.020875437131E-01
  1.932545390860E-01  1.847753988243E-01  1.766319461873E-01  1.688075036687E-01
  1.612867615050E-01  1.540556552117E-01  1.471012517614E-01  1.404116440150E-01
  1.339758530095E-01  1.277837377112E-01  1.218259118399E-01  1.160936673808E-01
  1.105789044018E-01  1.052740668076E-01  1.001720836676E-01  9.526631577076E-02
  9.055050706869E-02  8.601874068382E-02  8.166539917321E-02  7.748512875211E-02
  7.347280719643E-02  6.962351515798E-02  6.593251064108E-02  6.239520640343E-02
  5.900715005879E-02  5.576400667262E-02  5.266154365501E-02  4.969561776809E-02
  4.686216407664E-02  4.415718668169E-02  4.157675108687E-02  3.911697805611E-02
  3.677403882952E-02  3.454415157102E-02  3.242357892716E-02  3.040862658738E-02
  2.849564272169E-02  2.668101820747E-02  2.496118753252E-02  2.333263027833E-02
  2.179187308859E-02  2.033549203157E-02  1.896011526895E-02  1.766242594811E-02
  1.643916523926E-02  1.528713544435E-02  1.420320310970E-02  1.318430208096E-02
  1.222743644462E-02  1.132968330730E-02  1.048819537067E-02  9.700203266543E-03
  8.963017623508E-03  8.274030842956E-03  7.630718568735E-03  7.030640840571E-03
  6.471442926955E-03  5.950855838287E-03  5.466696525589E-03  5.016867774142E-03
  4.599357804815E-03  4.212239598784E-03  3.853669963669E-03  3.521888360903E-03
  3.215215515523E-03  2.932051830351E-03  2.670875626988E-03  2.430241236054E-03
  2.208776958766E-03  2.005182921345E-03  1.818228842818E-03  1.646751735699E-03
  1.489653557734E-03  1.345898831501E-03  1.214512247161E-03  1.094576262083E-03
  9.852287095556E-04  8.856604272158E-04  7.951129143777E-04  7.128760260213E-04
  6.382857098989E-04  5.707217920280E-04  5.096058147689E-04  4.543989307540E-04
  4.045998551297E-04  3.597428778967E-04  3.193959375821E-04  2.831587570288E-04
  2.506610417406E-04  2.215607409596E-04  1.955423714518E-04  1.723154038363E-04
  1.516127111897E-04  1.331890795794E-04  1.168197801219E-04  1.022992021058E-04
  8.943954666710E-05  7.806958044748E-05  6.803344859536E-05  5.918954639512E-05
  5.140944871987E-05  4.457689640594E-05  3.858683854044E-05  3.334452954203E-05
  2.876467979934E-05  2.477065851679E-05  2.129374730471E-05  1.827244294386E-05
  1.565180765487E-05  1.338286511427E-05  1.142204038092E-05  9.730641832321E-06
  8.274383159827E-06  7.022943435214E-06  5.949563239921E-06  5.030674840579E-06
  4.245564401083E-06  3.576064240892E-06  3.006273180830E-06  2.522303060192E-06
  2.112049561217E-06  1.764985537764E-06  1.471975112923E-06  1.225106884041E-06
  1.017544652053E-06  8.433941737584E-07  6.975845194514E-07  5.757627027945E-07
  4.742003406251E-07  3.897111823416E-07  3.195783468334E-07  2.614906203229E-07
  2.134862465538E-07  1.739038320565E-07  1.413396743383E-07  1.146105897634E-07
  9.272161833079E-08  7.483806396391E-08  6.026135328605E-08  4.840824527149E-08
  3.879297330544E-08  3.101194575871E-08  2.465197405831E-08  1.961284439868E-08
  1.556450416042E-08  1.232037991907E-08  9.727362405476E-09  7.660130440948E-09
  6.016376355219E-09  4.712800752405E-09  3.681761952971E-09  2.868480909716E-09
  2.228716049853E-09  1.726834502900E-09  1.334216695933E-09  1.027940484763E-09
  7.896989827973E-10  6.049131793501E-10  4.620064265119E-10  3.518130284016E-10
  2.670975892263E-10  2.021655577813E-10  1.525486276860E-10  1.147513880562E-10
  8.604793377692E-11  6.431909605133E-11  4.792259363518E-11  3.558977812694E-11
  2.634379223821E-11  1.943491242233E-11  1.428963633822E-11  1.047072706557E-11
  7.645961858501E-12  5.563772444840E-12  4.034322576206E-12  2.914860404626E-12
  2.098419882731E-12  1.505136505688E-12  1.075596507546E-12  7.657619176074E-13
  5.431123483656E-13  3.837227241867E-13  2.700582434840E-13  1.893168776004E-13
  1.321882478427E-13  9.192790554049E-14  6.366958522585E-14  4.391629369971E-14
  3.016525158511E-14  2.063261021094E-14  1.405223545895E-14  9.529244858033E-15
  6.433849616465E-15  4.324739232990E-15  2.894026604840E-15  1.927859473030E-15
  1.278365062507E-15  8.437566161156E-16  5.542913374128E-16  3.624041151259E-16
  2.358074416584E-16  1.526884457621E-16  9.838156824597E-17  6.307460092072E-17
  4.023485738634E-17  2.553473109627E-17  1.612182556271E-17  1.012568389639E-17
  6.326079253185E-18  3.931130386194E-18  2.429656490049E-18  1.493442912341E-18
  9.128934069666E-19  5.548942668005E-19  3.353743205610E-19  2.015343594330E-19
  1.204032149897E-19  7.150993116983E-20  4.221853514276E-20  2.477520977245E-20
  1.445031685307E-20  8.376282649126E-21  4.825106038905E-21  2.761920699174E-21
  1.570836665175E-21  8.876321580605E-22  0.000000000000E+00  0.000000000000E+00
  0.000000000000E+00  0.000000000000E+00  0.000000000000E+00  0.000000000000E+00
  0.000000000000E+00  0.000000000000E+00  0.000000000000E+00  0.000000000000E+00
  0.000000000000E+00  0.000000000000E+00  0.000000000000E+00  0.000000000000E+00
  0.000000000000E+00
</data>
</radfunc>
</valence-charge>
<pseudocore-charge matching-radius="0.416951578209"
 number-of-continuous-derivatives="4">
<annotation model-charge-form="Teter function with specified parameters" />
<radfunc>
<data npts="290">
  1.218146047252E+02  1.217950701381E+02  1.217366852189E+02  1.216393142331E+02
  1.215040081081E+02  1.213262238849E+02  1.210998523687E+02  1.208409292598E+02
  1.205501698966E+02  1.202115955569E+02  1.198306056369E+02  1.194172662931E+02
  1.189187928656E+02  1.183994394206E+02  1.177884291080E+02  1.171800002505E+02
  1.164815942477E+02  1.158217690030E+02  1.150825420262E+02  1.142549534323E+02
  1.133291918153E+02  1.125107383029E+02  1.116167255351E+02  1.106408778613E+02
  1.095765450828E+02  1.084167127677E+02  1.071540219129E+02  1.061348980244E+02
  1.050502675510E+02  1.038967208440E+02  1.026707945481E+02  1.013689929074E+02
  9.998781337398E+01  9.852377700884E+01  9.697346418740E+01  9.533355612188E+01
  9.360088270785E+01  9.177247717545E+01  9.049900858697E+01  8.918106392757E+01
  8.781799826599E+01  8.640925334967E+01  8.495436900466E+01  8.345299522407E+01
  8.190490492653E+01  8.031000735415E+01  7.866836206593E+01  7.698019346690E+01
  7.524590579565E+01  7.346609847323E+01  7.164158169410E+01  6.977339211614E+01
  6.786280847970E+01  6.591136695777E+01  6.392087600879E+01  6.189343047169E+01
  5.983142460971E+01  5.773756377609E+01  5.561487434068E+01  5.346671148439E+01
  5.129676443761E+01  4.910905871157E+01  4.690795484952E+01  4.469814320892E+01
  4.248463427899E+01  4.027274404184E+01  3.806807390270E+01  3.697026859712E+01
  3.587648474777E+01  3.478749022660E+01  3.370406473959E+01  3.262699845643E+01
  3.155709053247E+01  3.049514752245E+01  2.944198168594E+01  2.839840918512E+01
  2.736524817638E+01  2.634331679772E+01  2.533343105484E+01  2.433640260979E+01
  2.335303647669E+01  2.238412863021E+01  2.143046353346E+01  2.049281159290E+01
  1.957192654906E+01  1.866854281291E+01  1.778337275888E+01  1.691710398670E+01
  1.607039656532E+01  1.524388027332E+01  1.443815185141E+01  1.365377228365E+01
  1.289126412500E+01  1.215110889386E+01  1.143374454912E+01  1.073956307196E+01
  1.006890817340E+01  9.422073148910E+00  8.799298901976E+00  8.200772158498E+00
  7.626623893892E+00  7.076927994487E+00  6.551700174295E+00  6.050897167403E+00
  5.574416215167E+00  5.122094866018E+00  4.693711103968E+00  4.288983819941E+00
  3.907573637654E+00  3.549084103172E+00  3.213063244243E+00  2.899005502251E+00
  2.606354036021E+00  2.334503392897E+00  2.082802538406E+00  1.850558231536E+00
  1.637038728264E+00  1.441477791389E+00  1.263078980227E+00  1.101020189153E+00
  9.544583996039E-01  8.225346059290E-01  7.043788715604E-01  5.991154684180E-01
  5.058680493990E-01  4.237648012845E-01  3.519435235432E-01  2.895565774054E-01
  2.357756492974E-01  1.897962733405E-01  1.508420591895E-01  1.181685740492E-01
  9.106683129615E-02  6.886634273661E-02  5.093769713966E-02  3.669463423815E-02
  2.559559081688E-02  1.714470370043E-02  1.089226327612E-02  6.434620477853E-03
  3.413559723347E-03  1.515159927680E-03  4.681751757545E-04  4.197567984609E-05
  4.409802020049E-05  3.174611131405E-04  7.373106269126E-04  1.207959443362E-03
  1.659395044250E-03  2.043826222999E-03  2.332241171408E-03  2.511046707581E-03
  2.578854200109E-03  2.543471676919E-03  2.419153828802E-03  2.224152342757E-03
  1.978598512348E-03  1.702738716588E-03  1.415531532093E-03  1.133603379784E-03
  8.705481622076E-04  6.365457762959E-04  4.382651236352E-04  2.790096768726E-04
  1.590581209670E-04  7.614930856827E-05  2.605988158840E-05  3.224429315142E-06
  1.351864743882E-06  1.399756675773E-05  3.505839973484E-05  5.916652519076E-05
  8.196742496531E-05  1.002771778396E-04  1.121231764225E-04  1.166805733518E-04
  1.141233102264E-04  1.054132225173E-04  9.205318282579E-05  7.583046071624E-05
  5.857453198516E-05  4.194972727260E-05  2.729778646792E-05  1.553911919166E-05
  7.134975552849E-06  2.106438100496E-06  1.007481823880E-07  4.914718419111E-07
  2.496735826082E-06  5.299379135589E-06  8.154318643000E-06  1.047146377709E-05
  1.186670364881E-05  1.217827141244E-05  1.145054565462E-05  9.891474197493E-06
  7.812793267243E-06  5.563718486903E-06  3.468668587160E-06  1.777944464420E-06
  6.374405027122E-07  7.990041049830E-08  0.000000000000E+00  0.000000000000E+00
  0.000000000000E+00  0.000000000000E+00  0.000000000000E+00  0.000000000000E+00
  0.000000000000E+00  0.000000000000E+00  0.000000000000E+00  0.000000000000E+00
  0.000000000000E+00  0.000000000000E+00  0.000000000000E+00  0.000000000000E+00
  0.000000000000E+00  0.000000000000E+00  0.000000000000E+00  0.000000000000E+00
  0.000000000000E+00  0.000000000000E+00  0.000000000000E+00  0.000000000000E+00
  0.000000000000E+00  0.000000000000E+00  0.000000000000E+00  0.000000000000E+00
  0.000000000000E+00  0.000000000000E+00  0.000000000000E+00  0.000000000000E+00
  0.000000000000E+00  0.000000000000E+00  0.000000000000E+00  0.000000000000E+00
  0.000000000000E+00  0.000000000000E+00  0.000000000000E+00  0.000000000000E+00
  0.000000000000E+00  0.000000000000E+00  0.000000000000E+00  0.000000000000E+00
  0.000000000000E+00  0.000000000000E+00  0.000000000000E+00  0.000000000000E+00
  0.000000000000E+00  0.000000000000E+00  0.000000000000E+00  0.000000000000E+00
  0.000000000000E+00  0.000000000000E+00  0.000000000000E+00  0.000000000000E+00
  0.000000000000E+00  0.000000000000E+00  0.000000000000E+00  0.000000000000E+00
  0.000000000000E+00  0.000000000000E+00  0.000000000000E+00  0.000000000000E+00
  0.000000000000E+00  0.000000000000E+00  0.000000000000E+00  0.000000000000E+00
  0.000000000000E+00  0.000000000000E+00  0.000000000000E+00  0.000000000000E+00
  0.000000000000E+00  0.000000000000E+00  0.000000000000E+00  0.000000000000E+00
  0.000000000000E+00  0.000000000000E+00  0.000000000000E+00  0.000000000000E+00
  0.000000000000E+00  0.000000000000E+00  0.000000000000E+00  0.000000000000E+00
  0.000000000000E+00  0.000000000000E+00  0.000000000000E+00  0.000000000000E+00
  0.000000000000E+00  0.000000000000E+00
</data>
</radfunc>
</pseudocore-charge>
<semilocal-potentials set="scalar_relativistic">
<slps n="3" l="s" rc="1.10888790712">
<radfunc>
<data npts="290">
 -1.155415701330E+01 -1.155725680686E+01 -1.156651750964E+01 -1.158195317145E+01
 -1.160338458119E+01 -1.163151264743E+01 -1.166727620092E+01 -1.170811154190E+01
 -1.175387785414E+01 -1.180705069441E+01 -1.186673132521E+01 -1.193129606312E+01
 -1.200890612988E+01 -1.208947421379E+01 -1.218388017349E+01 -1.227747993623E+01
 -1.238442314888E+01 -1.248497179194E+01 -1.259706144781E+01 -1.272185299171E+01
 -1.286058179232E+01 -1.298247330927E+01 -1.311481163543E+01 -1.325830938642E+01
 -1.341369127955E+01 -1.358168599599E+01 -1.376301609544E+01 -1.390818970864E+01
 -1.406154687799E+01 -1.422335882025E+01 -1.439387782702E+01 -1.457333224843E+01
 -1.476192095458E+01 -1.495980726831E+01 -1.516711237224E+01 -1.538390820335E+01
 -1.561020986028E+01 -1.584596756221E+01 -1.600833521321E+01 -1.617479615917E+01
 -1.634527663882E+01 -1.651968430225E+01 -1.669790700415E+01 -1.687981159541E+01
 -1.706524272073E+01 -1.725402163075E+01 -1.744594501763E+01 -1.764078388345E+01
 -1.783828245156E+01 -1.803815713092E+01 -1.824009554438E+01 -1.844375563149E+01
 -1.864876483719E+01 -1.885471939744E+01 -1.906118373315E+01 -1.926768996365E+01
 -1.947373755118E+01 -1.967879308783E+01 -1.988229023641E+01 -2.008362983723E+01
 -2.028218019310E+01 -2.047727754554E+01 -2.066822675656E+01 -2.085430221137E+01
 -2.103474896001E+01 -2.120878411759E+01 -2.137559854655E+01 -2.145603843685E+01
 -2.153435884697E+01 -2.161045219288E+01 -2.168420968526E+01 -2.175552142316E+01
 -2.182427649438E+01 -2.189036308271E+01 -2.195366858262E+01 -2.201407972144E+01
 -2.207148268953E+01 -2.212576327860E+01 -2.217680702857E+01 -2.222449938310E+01
 -2.226872585417E+01 -2.230937219571E+01 -2.234632458652E+01 -2.237946982258E+01
 -2.240869551870E+01 -2.243389031947E+01 -2.245494411940E+01 -2.247174829209E+01
 -2.248419592803E+01 -2.249218208075E+01 -2.249560402085E+01 -2.249436149732E+01
 -2.248835700568E+01 -2.247749606203E+01 -2.246168748256E+01 -2.244084366744E+01
 -2.241488088854E+01 -2.238371957987E+01 -2.234728462997E+01 -2.230550567534E+01
 -2.225831739392E+01 -2.220565979769E+01 -2.214747852339E+01 -2.208372512036E+01
 -2.201435733437E+01 -2.193933938642E+01 -2.185864224517E+01 -2.177224389171E+01
 -2.168012957530E+01 -2.158229205849E+01 -2.147873184982E+01 -2.136945742249E+01
 -2.125448541685E+01 -2.113384082484E+01 -2.100755715430E+01 -2.087567657105E+01
 -2.073825001708E+01 -2.059533730302E+01 -2.044700717376E+01 -2.029333734668E+01
 -2.013441452241E+01 -1.997033436951E+01 -1.980120148529E+01 -1.962712933689E+01
 -1.944824018834E+01 -1.926466502175E+01 -1.907654346299E+01 -1.888402372519E+01
 -1.868726258651E+01 -1.848642542168E+01 -1.828168631036E+01 -1.807322824859E+01
 -1.786124349283E+01 -1.764593406853E+01 -1.742751247710E+01 -1.720620263540E+01
 -1.698224108097E+01 -1.675587847204E+01 -1.652738140491E+01 -1.629703456033E+01
 -1.606514317485E+01 -1.583203581184E+01 -1.559806737892E+01 -1.536362230306E+01
 -1.512911773117E+01 -1.489500657235E+01 -1.466178087494E+01 -1.442996353716E+01
 -1.426013250539E+01 -1.409195558790E+01 -1.392565655865E+01 -1.376119659471E+01
 -1.359855163676E+01 -1.343769787660E+01 -1.327861215816E+01 -1.312127226305E+01