<?xml version="1.0" encoding="UTF-8" ?>
<psml version="1.1" energy_unit="hartree" length_unit="bohr"
 uuid="b3d34560-470b-11e8-6c1f-2496efd9bac7"
 xmlns="http://esl.cecam.org/PSML/ns/1.1">
<provenance creator="ONCVPSP-3.3.0+psml-3.3.0-73 (fully-relativistic)"
 date="2018-04-23">
<annotation action="semilocal-pseudopotential-generation"
 action-cont="projectors-generation" />
<input-file name="oncvpsp-input">
<![CDATA[# atsym z nc nv iexc psfile
Si 14 3 2 4 both
# n l f
1 0 2.0
2 0 2.0
2 1 6.0
3 0 2.0
3 1 2.0
# lmax
2
# l rc ep ncon nbas qcut
0 1.6 0.0 4 9 6.4
1 1.71 0.0 4 9 6.4
2 1.9 0.05 4 9 6.4
# lloc lpopt rc5 dvloc0
4 5 1.6 0.0
# l nproj debl
0 2 2.5
1 2 2.5
2 2 1.5
# icmod fcfact rcfact
3 4.0 1.3
# epsh1 epsh2 depsh
-12.0 12.0 0.02
# rlmax drl
6.0 0.01
 0
]]>
</input-file>
</provenance>
<pseudo-atom-spec atomic-label="Si" atomic-number="14" z-pseudo="4"
 flavor="Hamann&apos;s oncvpsp" relativity="dirac" spin-dft="no"
 core-corrections="yes">
<annotation pseudo-energy="-3.75997046760" />
<exchange-correlation>
<annotation oncvpsp-xc-code="4" oncvpsp-xc-type="GGA -- Perdew-Burke-Ernzerhof" />
<libxc-info number-of-functionals="2">
<functional name="Perdew, Burke &amp; Ernzerhof (GGA)" type="exchange" id="101" />
<functional name="Perdew, Burke &amp; Ernzerhof (GGA)" type="correlation"
 id="130" />
</libxc-info>
</exchange-correlation>
<valence-configuration total-valence-charge="4">
<shell n="3" l="s" occupation="2" />
<shell n="3" l="p" occupation="2" />
</valence-configuration>
</pseudo-atom-spec>
<grid npts="457">
<annotation type="sampled from oncvpsp log grid"
 recipe="r(i:1..N) = r1*exp(a*(i-1)) + r=0; resampled"
 recipe-cont="r1: scale; a: step" scale="0.357142857143E-04"
 step="0.119285708653E-01" delta="0.500000000000E-02" rmax="44.1697227368" />
<grid-data>
  0.000000000000E+00  5.043762840785E-03  1.007452045417E-02  1.511338716874E-02
  2.012306398724E-02  2.524200484366E-02  3.055005847129E-02  3.567456681735E-02
  4.067657200651E-02  4.582995923277E-02  5.102395083885E-02  5.613299095240E-02
  6.175360044568E-02  6.713142577090E-02  7.297758014932E-02  7.839214240648E-02
  8.420843742015E-02  8.938366768873E-02  9.487695407084E-02  1.007078434632E-01
  1.068970840635E-01  1.121212442685E-01  1.176007140554E-01  1.233479706417E-01
  1.293761010181E-01  1.356988317486E-01  1.423305602273E-01  1.475161931447E-01
  1.528907580013E-01  1.584611382921E-01  1.642344683032E-01  1.702181422495E-01
  1.764198237449E-01  1.828474556171E-01  1.895092700805E-01  1.964137992801E-01
  2.035698862185E-01  2.109866960820E-01  2.160807588722E-01  2.212978127144E-01
  2.266408271046E-01  2.321128432342E-01  2.377169757212E-01  2.434564143831E-01
  2.493344260519E-01  2.553543564345E-01  2.615196320163E-01  2.678337620117E-01
  2.743003403617E-01  2.809230477794E-01  2.877056538450E-01  2.946520191514E-01
  3.017660975018E-01  3.090519381599E-01  3.165136881548E-01  3.241555946416E-01
  3.319820073186E-01  3.399973809033E-01  3.482062776679E-01  3.566133700359E-01
  3.652234432420E-01  3.740413980557E-01  3.830722535703E-01  3.923211500605E-01
  4.017933519076E-01  4.114942505960E-01  4.214293677824E-01  4.264865201958E-01
  4.316043584382E-01  4.367836107394E-01  4.420250140683E-01  4.473293142371E-01
  4.526972660080E-01  4.581296332001E-01  4.636271887985E-01  4.691907150641E-01
  4.748210036448E-01  4.805188556886E-01  4.862850819568E-01  4.921205029403E-01
  4.980259489756E-01  5.040022603633E-01  5.100502874877E-01  5.161708909375E-01
  5.223649416288E-01  5.286333209283E-01  5.349769207794E-01  5.413966438288E-01
  5.478934035547E-01  5.544681243974E-01  5.611217418902E-01  5.678552027928E-01
  5.746694652264E-01  5.815654988091E-01  5.885442847948E-01  5.956068162123E-01
  6.027540980069E-01  6.099871471830E-01  6.173069929492E-01  6.247146768645E-01
  6.322112529869E-01  6.397977880228E-01  6.474753614790E-01  6.552450658168E-01
  6.631080066066E-01  6.710653026859E-01  6.791180863181E-01  6.872675033539E-01
  6.955147133942E-01  7.038608899549E-01  7.123072206343E-01  7.208549072820E-01
  7.295051661693E-01  7.382592281634E-01  7.471183389013E-01  7.560837589681E-01
  7.651567640758E-01  7.743386452447E-01  7.836307089876E-01  7.930342774955E-01
  8.025506888254E-01  8.121812970913E-01  8.219274726564E-01  8.317906023283E-01
  8.417720895562E-01  8.518733546309E-01  8.620958348865E-01  8.724409849051E-01
  8.829102767240E-01  8.935052000447E-01  9.042272624452E-01  9.150779895945E-01
  9.260589254697E-01  9.371716325753E-01  9.484176921662E-01  9.597987044722E-01
  9.713162889259E-01  9.829720843930E-01  9.947677494057E-01  1.006704962399E+00
  1.018785421947E+00  1.031010847011E+00  1.043382977175E+00  1.055903572901E+00
  1.068574415776E+00  1.081397308765E+00  1.094374076470E+00  1.107506565388E+00
  1.120796644173E+00  1.134246203903E+00  1.147857158349E+00  1.161631444250E+00
  1.175571021581E+00  1.189677873840E+00  1.203954008326E+00  1.218401456426E+00
  1.233022273903E+00  1.247818541190E+00  1.262792363684E+00  1.277945872048E+00
  1.293281222513E+00  1.308800597183E+00  1.324506204349E+00  1.340400278801E+00
  1.356485082147E+00  1.372762903132E+00  1.389236057970E+00  1.405906890666E+00
  1.422777773354E+00  1.439851106634E+00  1.457129319914E+00  1.474614871753E+00
  1.492310250214E+00  1.510217973216E+00  1.528340588895E+00  1.546680675961E+00
  1.565240844073E+00  1.584023734202E+00  1.603032019012E+00  1.622268403240E+00
  1.641735624079E+00  1.661436451568E+00  1.681373688987E+00  1.701550173255E+00
  1.721968775334E+00  1.742632400638E+00  1.763543989446E+00  1.784706517319E+00
  1.806122995527E+00  1.827796471473E+00  1.849730029131E+00  1.871926789480E+00
  1.894389910954E+00  1.917122589886E+00  1.940128060964E+00  1.963409597696E+00
  1.986970512868E+00  2.010814159023E+00  2.034943928931E+00  2.059363256078E+00
  2.084075615151E+00  2.109084522533E+00  2.134393536803E+00  2.160006259245E+00
  2.185926334356E+00  2.212157450368E+00  2.238703339772E+00  2.265567779850E+00
  2.292754593208E+00  2.320267648326E+00  2.348110860106E+00  2.376288190428E+00
  2.404803648713E+00  2.433661292497E+00  2.462865228007E+00  2.492419610743E+00
  2.522328646072E+00  2.552596589825E+00  2.583227748903E+00  2.614226481890E+00
  2.645597199672E+00  2.677344366069E+00  2.709472498461E+00  2.741986168443E+00
  2.774890002464E+00  2.808188682494E+00  2.841886946684E+00  2.875989590044E+00
  2.910501465124E+00  2.945427482706E+00  2.980772612498E+00  3.016541883848E+00
  3.052740386455E+00  3.089373271092E+00  3.126445750345E+00  3.163963099349E+00
  3.201930656541E+00  3.240353824420E+00  3.279238070313E+00  3.318588927157E+00
  3.358411994283E+00  3.398712938214E+00  3.439497493473E+00  3.480771463394E+00
  3.522540720955E+00  3.564811209606E+00  3.607588944122E+00  3.650880011451E+00
  3.694690571589E+00  3.739026858448E+00  3.783895180749E+00  3.829301922918E+00
  3.875253545993E+00  3.921756588545E+00  3.968817667608E+00  4.016443479619E+00
  4.064640801374E+00  4.113416490991E+00  4.162777488883E+00  4.212730818749E+00
  4.263283588574E+00  4.314442991637E+00  4.366216307537E+00  4.418610903227E+00
  4.471634234066E+00  4.525293844875E+00  4.579597371013E+00  4.634552539465E+00
  4.690167169939E+00  4.746449175978E+00  4.803406566090E+00  4.861047444883E+00
  4.919380014222E+00  4.978412574392E+00  5.038153525285E+00  5.098611367588E+00
  5.159794703999E+00  5.221712240447E+00  5.284372787333E+00  5.347785260781E+00
  5.411958683910E+00  5.476902188117E+00  5.542625014375E+00  5.609136514547E+00
  5.676446152722E+00  5.744563506554E+00  5.813498268633E+00  5.883260247857E+00
  5.953859370831E+00  6.025305683281E+00  6.097609351480E+00  6.170780663698E+00
  6.244830031662E+00  6.319767992042E+00  6.395605207947E+00  6.472352470442E+00
  6.550020700087E+00  6.628620948488E+00  6.708164399870E+00  6.788662372669E+00
  6.870126321141E+00  6.952567836994E+00  7.035998651038E+00  7.120430634851E+00
  7.205875802469E+00  7.292346312099E+00  7.379854467844E+00  7.468412721458E+00
  7.558033674116E+00  7.648730078205E+00  7.740514839143E+00  7.833401017213E+00
  7.927401829420E+00  8.022530651373E+00  8.118801019189E+00  8.216226631419E+00
  8.314821350996E+00  8.414599207208E+00  8.515574397695E+00  8.617761290467E+00
  8.721174425953E+00  8.825828519064E+00  8.931738461293E+00  9.038919322829E+00
  9.147386354702E+00  9.257154990959E+00  9.368240850850E+00  9.480659741061E+00
  9.594427657953E+00  9.709560789849E+00  9.826075519327E+00  9.943988425559E+00
  1.006331628667E+01  1.018407608211E+01  1.030628499509E+01  1.042996041503E+01
  1.055511994001E+01  1.068178137929E+01  1.080996275584E+01  1.093968230891E+01
  1.107095849662E+01  1.120380999858E+01  1.133825571856E+01  1.147431478719E+01
  1.161200656463E+01  1.175135064341E+01  1.189236685113E+01  1.203507525334E+01
  1.217949615638E+01  1.232565011026E+01  1.247355791158E+01  1.262324060652E+01
  1.277471949380E+01  1.292801612773E+01  1.308315232126E+01  1.324015014911E+01
  1.339903195090E+01  1.355982033431E+01  1.372253817832E+01  1.388720863646E+01
  1.405385514010E+01  1.422250140178E+01  1.439317141861E+01  1.456588947563E+01
  1.474068014934E+01  1.491756831113E+01  1.509657913086E+01  1.527773808043E+01
  1.546107093740E+01  1.564660378865E+01  1.583436303411E+01  1.602437539052E+01
  1.621666789521E+01  1.641126790995E+01  1.660820312487E+01  1.680750156237E+01
  1.700919158111E+01  1.721330188009E+01  1.741986150265E+01  1.762889984068E+01
  1.784044663877E+01  1.805453199843E+01  1.827118638241E+01  1.849044061900E+01
  1.871232590643E+01  1.893687381731E+01  1.916411630312E+01  1.939408569875E+01
  1.962681472714E+01  1.986233650386E+01  2.010068454191E+01  2.034189275641E+01
  2.058599546949E+01  2.083302741512E+01  2.108302374411E+01  2.133602002904E+01
  2.159205226938E+01  2.185115689662E+01  2.211337077938E+01  2.237873122873E+01
  2.264727600347E+01  2.291904331551E+01  2.319407183530E+01  2.347240069732E+01
  2.375406950569E+01  2.403911833976E+01  2.432758775984E+01  2.461951881296E+01
  2.491495303871E+01  2.521393247518E+01  2.551649966488E+01  2.582269766086E+01
  2.613257003279E+01  2.644616087318E+01  2.676351480366E+01  2.708467698130E+01
  2.740969310508E+01  2.773860942234E+01  2.807147273541E+01  2.840833040823E+01
  2.874923037313E+01  2.909422113761E+01  2.944335179126E+01  2.979667201275E+01
  3.015423207691E+01  3.051608286183E+01  3.088227585617E+01  3.125286316645E+01
  3.162789752444E+01  3.200743229474E+01  3.239152148227E+01  3.278021974006E+01
  3.317358237694E+01  3.357166536547E+01  3.397452534985E+01  3.438221965405E+01
  3.479480628990E+01  3.521234396538E+01  3.563489209296E+01  3.606251079808E+01
  3.649526092765E+01  3.693320405879E+01  3.737640250749E+01  3.782491933758E+01
  3.827881836963E+01  3.873816419007E+01  3.920302216035E+01  3.967345842627E+01
  4.014953992739E+01  4.063133440652E+01  4.111891041939E+01  4.161233734443E+01
  4.211168539256E+01  4.261702561727E+01  4.312842992468E+01  4.364597108377E+01
  4.416972273678E+01
</grid-data>
</grid>
<valence-charge total-charge="4" is-unscreening-charge="yes"
 rescaled-to-z-pseudo="no">
<radfunc>
<data npts="457">
  2.856942977357E-02  2.858298452051E-02  2.862351084721E-02  2.869114518469E-02
  2.878522695885E-02  2.890901765522E-02  2.906692450927E-02  2.924793078836E-02
  2.945169489022E-02  2.968964034393E-02  2.995826538357E-02  3.025074848384E-02
  3.060493703507E-02  3.097567843107E-02  3.141411362573E-02  3.185315397039E-02
  3.236017905062E-02  3.284223290074E-02  3.338584518287E-02  3.399894647358E-02
  3.469050770328E-02  3.530702671689E-02  3.598604108620E-02  3.673396946521E-02
  3.755790697973E-02  3.846569993023E-02  3.946602935017E-02  4.028274628805E-02
  4.116132908156E-02  4.210656176484E-02  4.312361229820E-02  4.421806515447E-02
  4.539595682593E-02  4.666381450367E-02  4.802869819304E-02  4.949824653645E-02
  5.108072661706E-02  5.278508801118E-02  5.399379390117E-02  5.526402681376E-02
  5.659902154782E-02  5.800218985972E-02  5.947713020670E-02  6.102763792904E-02
  6.265771586415E-02  6.437158537893E-02  6.617369779883E-02  6.806874620234E-02
  7.006167753874E-02  7.215770501366E-02  7.436232067238E-02  7.668130809337E-02
  7.912075508563E-02  8.168706626146E-02  8.438697533250E-02  8.722755695044E-02
  9.021623788538E-02  9.336080730418E-02  9.666942587884E-02  1.001506334216E-01
  1.038133547090E-01  1.076669031238E-01  1.117209817090E-01  1.159856811995E-01
  1.204714745668E-01  1.251892075888E-01  1.301500849407E-01  1.327252977952E-01
  1.353656512871E-01  1.380726376167E-01  1.408477668535E-01  1.436925658341E-01
  1.466085769544E-01  1.495973568503E-01  1.526604749648E-01  1.557995119970E-01
  1.590160582290E-01  1.623117117277E-01  1.656880764164E-01  1.691467600137E-01
  1.726893718348E-01  1.763175204516E-01  1.800328112066E-01  1.838368435766E-01
  1.877312083803E-01  1.917174848245E-01  1.957972373821E-01  1.999720124943E-01
  2.042433350897E-01  2.086127049089E-01  2.130815926240E-01  2.176514357412E-01
  2.223236342692E-01  2.270995461384E-01  2.319804823504E-01  2.369677018348E-01
  2.420624059889E-01  2.472657328708E-01  2.525787510146E-01  2.580024528306E-01
  2.635377475531E-01  2.691854536902E-01  2.749462909307E-01  2.808208714560E-01
  2.868096906041E-01  2.929131168292E-01  2.991313808969E-01  3.054645642559E-01
  3.119125865245E-01  3.184751920337E-01  3.251519353670E-01  3.319421658469E-01
  3.388450109184E-01  3.458593583945E-01  3.529838375357E-01  3.602167989525E-01
  3.675562933371E-01  3.750000490525E-01  3.825454486311E-01  3.901895042658E-01
  3.979288324062E-01  4.057596276134E-01  4.136776358618E-01  4.216781275235E-01
  4.297558703140E-01  4.379051025247E-01  4.461195069179E-01  4.543921857044E-01
  4.627156370712E-01  4.710817337660E-01  4.794817042828E-01  4.879061172204E-01
  4.963448694009E-01  5.047871783436E-01  5.132215796770E-01  5.216359300451E-01
  5.300174160177E-01  5.383525694442E-01  5.466272896007E-01  5.548268723655E-01
  5.629360465186E-01  5.709390171019E-01  5.788195155960E-01  5.865608564734E-01
  5.941459994810E-01  6.015576167904E-01  6.087781639501E-01  6.157899533767E-01
  6.225752289515E-01  6.291162401575E-01  6.353953141082E-01  6.413949237945E-01
  6.470977509358E-01  6.524867419572E-01  6.575451558537E-01  6.622566030396E-01
  6.666050747248E-01  6.705749629032E-01  6.741510716743E-01  6.773186213315E-01
  6.800632474139E-01  6.823709977040E-01  6.842283309186E-01  6.856221215375E-01
  6.865396757980E-01  6.869687642810E-01  6.868976766844E-01  6.863153042501E-01
  6.852112548433E-01  6.835760048231E-01  6.814010905841E-01  6.786793409727E-01
  6.754051497263E-01  6.715747846905E-01  6.671867279488E-01  6.622420382501E-01
  6.567447244256E-01  6.507021160106E-01  6.441252152495E-01  6.370288084322E-01
  6.294306675995E-01  6.213502083484E-01  6.128083581380E-01  6.038279510311E-01
  5.944336944900E-01  5.846521205407E-01  5.745109429188E-01  5.640380667552E-01
  5.532613338559E-01  5.422086066787E-01  5.309076044834E-01  5.193858347738E-01
  5.076705131388E-01  4.957884877150E-01  4.837661670786E-01  4.716294517381E-01
  4.594036694274E-01  4.471135143902E-01  4.347829908324E-01  4.224353607034E-01
  4.100930959449E-01  3.977778353166E-01  3.855103458827E-01  3.733104892118E-01
  3.611971923102E-01  3.491884232795E-01  3.373011716593E-01  3.255514333849E-01
  3.139542002647E-01  3.025234538559E-01  2.912721635929E-01  2.802122890029E-01
  2.693547858253E-01  2.587096158327E-01  2.482857601417E-01  2.380912357863E-01
  2.281331153219E-01  2.184175492178E-01  2.089497907940E-01  1.997342234557E-01
  1.907743899775E-01  1.820730235920E-01  1.736320806400E-01  1.654527745452E-01
  1.575356108823E-01  1.498804233071E-01  1.424864101498E-01  1.353521714490E-01
  1.284757462374E-01  1.218546498950E-01  1.154859113950E-01  1.093661102813E-01
  1.034914132277E-01  9.785761004241E-02  9.246014899089E-02  8.729417132509E-02
  8.235454491616E-02  7.763589690054E-02  7.313264525973E-02  6.883902926456E-02
  6.474913872437E-02  6.085694199142E-02  5.715631267904E-02  5.364105506146E-02
  5.030492812828E-02  4.714166827679E-02  4.414501063174E-02  4.130870898625E-02
  3.862655436551E-02  3.609239221979E-02  3.370013825884E-02  3.144379294475E-02
  2.931745466488E-02  2.731533161152E-02  2.543175239880E-02  2.366117545170E-02
  2.199819720598E-02  2.043755916096E-02  1.897415383105E-02  1.760302964430E-02
  1.631939483914E-02  1.511862041282E-02  1.399624217658E-02  1.294796197437E-02
  1.196964812276E-02  1.105733513018E-02  1.020722275404E-02  9.415674453669E-03
  8.679215296655E-03  7.994529374815E-03  7.358456784832E-03  6.767990226749E-03
  6.220271271528E-03  5.712586346629E-03  5.242362486100E-03  4.807162889061E-03
  4.404682327700E-03  4.032742443104E-03  3.689286964344E-03  3.372376883354E-03
  3.080185615282E-03  2.810994171125E-03  2.563186366713E-03  2.335244089429E-03
  2.125742641428E-03  1.933346175703E-03  1.756803238950E-03  1.594942433023E-03
  1.446668204656E-03  1.310956771230E-03  1.186852188588E-03  1.073462565234E-03
  9.699564258134E-04  8.755592253752E-04  7.895500147697E-04  7.112582564267E-04
  6.400607888596E-04  5.753789374267E-04  5.166757682087E-04  4.634534812967E-04
  4.152509393356E-04  3.716413268132E-04  3.322299353307E-04  2.966520699112E-04
  2.645710713068E-04  2.356764492286E-04  2.096821214472E-04  1.863247537828E-04
  1.653621961103E-04  1.465720096467E-04  1.297500809509E-04  1.147093182441E-04
  1.012784258481E-04  8.930075273522E-05  7.863321137438E-05  6.914526325170E-05
  6.071796762789E-05  5.324309027124E-05  4.662226907239E-05  4.076623360313E-05
  3.559407582706E-05  3.103256930449E-05  2.701553435799E-05  2.348324677924E-05
  2.038188776321E-05  1.766303285253E-05  1.528317776534E-05  1.320329906362E-05
  1.138844769789E-05  9.807373538957E-06  8.432179078431E-06  7.238000548576E-06
  6.202714778450E-06  5.306670168543E-06  4.532440230047E-06  3.864598198178E-06
  3.289511291647E-06  2.795153252653E-06  2.370933863700E-06  2.007544199106E-06
  1.696816430190E-06  1.431597063795E-06  1.205632553744E-06  1.013466284049E-06
  8.503459808778E-07  7.121406674075E-07  5.952663314057E-07  4.966195297273E-07
  4.135182065322E-07  3.436490529283E-07  2.850207847121E-07  2.359227618506E-07
  1.948884182190E-07  1.606630128166E-07  1.321752541810E-07  1.085123879855E-07
  8.889837382173E-08  7.267481095339E-08  5.928430440497E-08  4.825599215728E-08
  3.919298151810E-08  3.176146798374E-08  2.568133318135E-08  2.071803986436E-08
  1.667566151336E-08  1.339090196468E-08  1.072797674519E-08  8.574242532893E-09
  6.836474485496E-09  5.437703183755E-09  4.314533716554E-09  3.414879086886E-09
  2.696048731680E-09  2.123140612124E-09  1.667692128050E-09  1.306551119434E-09
  1.020933514872E-09  7.956388410217E-10  6.183988837901E-10  4.793383520726E-10
  3.705294939183E-10  2.856253044826E-10  2.195582918679E-10  1.682937736204E-10
  1.286284018543E-10  9.802609355428E-11  7.448480582557E-11  5.642867167711E-11
  4.262092522983E-11  3.209381811516E-11  2.409238076038E-11  1.802943040087E-11
  1.344968703894E-11  1.000124230149E-11  7.412945635572E-12  5.476537396131E-12
  4.032577642272E-12  2.959400187288E-12  2.164469909212E-12  1.577642866780E-12
  1.145927919156E-12  8.294291576907E-13  5.982137618938E-13  4.299026084035E-13
  3.078233646820E-13  2.195997830361E-13  1.560780474290E-13  1.105126150518E-13
  7.795110674974E-14  5.477131266247E-14  3.833400855361E-14  2.672360732569E-14
  1.855517152791E-14  1.283136741089E-14  8.836855537207E-15  6.060632195181E-15
  4.139154950152E-15  2.814861660598E-15  1.906038744625E-15  1.285029590571E-15
  8.625383791389E-16  5.763741616353E-16  3.834139816640E-16  2.538896833498E-16
  1.673446466015E-16  1.097852353552E-16  7.168309456843E-17  4.658061787248E-17
  3.012201597266E-17  1.938328128132E-17  1.241105103061E-17  7.906803253015E-18
  5.011604894284E-18  3.160147240558E-18  1.379558062393E-18  0.000000000000E+00
  0.000000000000E+00  0.000000000000E+00  0.000000000000E+00  0.000000000000E+00
  0.000000000000E+00  0.000000000000E+00  0.000000000000E+00  0.000000000000E+00
  0.000000000000E+00  0.000000000000E+00  0.000000000000E+00  0.000000000000E+00
  0.000000000000E+00  0.000000000000E+00  0.000000000000E+00  0.000000000000E+00
  0.000000000000E+00  0.000000000000E+00  0.000000000000E+00  0.000000000000E+00
  0.000000000000E+00
</data>
</radfunc>
</valence-charge>
<pseudocore-charge matching-radius="1.18967787384"
 number-of-continuous-derivatives="4">
<annotation model-charge-form="Teter function with specified parameters" />
<radfunc>
<data npts="290">
  2.819266216438E+00  2.819171482045E+00  2.818888273094E+00  2.818415729863E+00
  2.817758621569E+00  2.816894396280E+00  2.815792625926E+00  2.814530553263E+00
  2.813110912217E+00  2.811454615223E+00  2.809586687638E+00  2.807555177338E+00
  2.805098307615E+00  2.802530401100E+00  2.799498604483E+00  2.796468024407E+00
  2.792974872071E+00  2.789660409977E+00  2.785930445539E+00  2.781733520360E+00
  2.777011972410E+00  2.772813867441E+00  2.768202270427E+00  2.763137209787E+00
  2.757575008576E+00  2.751467974609E+00  2.744764071969E+00  2.739310512104E+00
  2.733463629261E+00  2.727195955882E+00  2.720478244572E+00  2.713279374389E+00
  2.705566255764E+00  2.697303734726E+00  2.688454497273E+00  2.678978974886E+00
  2.668835252425E+00  2.657978979827E+00  2.650322564942E+00  2.642314160217E+00
  2.633938720248E+00  2.625180670507E+00  2.616023900658E+00  2.606451759255E+00
  2.596447050009E+00  2.585992029880E+00  2.575068409208E+00  2.563657354167E+00
  2.551739491842E+00  2.539294918220E+00  2.526303209460E+00  2.512743436792E+00
  2.498594185454E+00  2.483833578085E+00  2.468439303022E+00  2.452388647994E+00
  2.435658539721E+00  2.418225589962E+00  2.400066148575E+00  2.381156364208E+00
  2.361472253221E+00  2.340989777513E+00  2.319684931903E+00  2.297533841765E+00
  2.274512871602E+00  2.250598745270E+00  2.225768678536E+00  2.213003217503E+00
  2.200000524663E+00  2.186757957410E+00  2.173272933665E+00  2.159542937643E+00
  2.145565525863E+00  2.131338333384E+00  2.116859080297E+00  2.102125578460E+00
  2.087135738477E+00  2.071887576932E+00  2.056379223878E+00  2.040608930567E+00
  2.024575077451E+00  2.008276182415E+00  1.991710909280E+00  1.974878076537E+00
  1.957776666341E+00  1.940405833738E+00  1.922764916125E+00  1.904853442947E+00
  1.886671145609E+00  1.868217967600E+00  1.849494074819E+00  1.830499866094E+00
  1.811235983866E+00  1.791703325043E+00  1.771903051986E+00  1.751836603626E+00
  1.731505706677E+00  1.710912386929E+00  1.690058980587E+00  1.668948145642E+00
  1.647582873229E+00  1.625966498948E+00  1.604102714103E+00  1.581995576837E+00
  1.559649523104E+00  1.537069377438E+00  1.514260363489E+00  1.491228114246E+00
  1.467978681924E+00  1.444518547436E+00  1.420854629404E+00  1.396994292647E+00
  1.372945356068E+00  1.348716099886E+00  1.324315272139E+00  1.299752094376E+00
  1.275036266470E+00  1.250177970468E+00  1.225187873398E+00  1.200077128950E+00
  1.174857377943E+00  1.149540747489E+00  1.124139848777E+00  1.098667773365E+00
  1.073138087914E+00  1.047564827258E+00  1.021962485729E+00  9.963460066410E-01
  9.707307698565E-01  9.451325773416E-01  9.195676366362E-01  8.940525421597E-01
  8.686042542816E-01  8.432400760905E-01  8.179776278052E-01  7.928348187754E-01
  7.678298170318E-01  7.429810163550E-01  7.183070008424E-01  6.938265069689E-01
  6.695583831462E-01  6.455215468061E-01  6.217349390448E-01  5.982174768874E-01
  5.749880032484E-01  5.520652346850E-01  5.294677070621E-01  5.072137192702E-01
  4.853212751606E-01  4.638080238891E-01  4.426911988807E-01  4.219875556597E-01
  4.017133088089E-01  3.818840683551E-01  3.625147758996E-01  3.436196408411E-01
  3.252120770631E-01  3.073046404826E-01  2.899089678801E-01  2.730357174520E-01
  2.566945115459E-01  2.408938820564E-01  2.256412189712E-01  2.109427225682E-01
  1.968033597703E-01  1.832268251646E-01  1.702155071901E-01  1.577704599891E-01
  1.458913814002E-01  1.345765975509E-01  1.238230544798E-01  1.136263171808E-01
  1.039805764212E-01  9.487866363380E-02  8.631207412652E-02  7.827099878673E-02
  7.074436438594E-02  6.371988251036E-02  5.718410705734E-02  5.112250014547E-02
  4.551950618971E-02  4.035863379169E-02  3.562254499167E-02  3.129315132346E-02
  2.735171600815E-02  2.377896151906E-02  2.055518165031E-02  1.766035712693E-02
  1.507427370761E-02  1.277664165417E-02  1.074721537682E-02  8.965912013252E-03
  7.412927664920E-03  6.068849997475E-03  4.914765915573E-03  3.932363047274E-03
  3.104023820720E-03  2.412910986695E-03  1.843043535207E-03  1.379362072316E-03
  1.007782864058E-03  7.152399161622E-04  4.897146391830E-04  3.202528458192E-04
  1.969690372264E-04  1.110381538403E-04  5.467518901403E-05  2.110328542167E-05
  4.511149135182E-06  8.187134793979E-10  3.527010653751E-06  1.182942232792E-05
  2.235950356844E-05  3.320330340495E-05  4.300205487453E-05  5.087217509917E-05
  5.632632790406E-05  5.919712147022E-05  5.956489473339E-05  5.769088593602E-05
  5.395687905092E-05  4.881219449071E-05  4.272863688219E-05  3.616374332651E-05
  2.953240013719E-05  2.318662488880E-05  1.740305431703E-05  1.237744755992E-05
  8.225318046589E-06  4.987654379251E-06  2.640587389714E-06  1.107811520287E-06
  2.745755204725E-07  2.119059397328E-09  1.415441907975E-07  5.462667820820E-07
  1.082383561564E-06  1.636503760770E-06  2.120817365371E-06  2.475390982376E-06
  2.667883730854E-06  2.691046964454E-06  2.558502701438E-06  2.299378931646E-06
  1.952411594086E-06  1.560103027255E-06  1.163459190037E-06  7.977208470030E-07
  4.893683424886E-07  2.545289965713E-07  9.876512009547E-08  1.808353147657E-08
  8.970292489178E-10  3.059439796135E-08  8.834411660614E-08  1.557692860813E-07
  2.171838608654E-07  2.611650503561E-07  2.813421480931E-07  2.763942194508E-07
  2.493536505537E-07  2.063964289263E-07  1.553530850627E-07  1.041907508578E-07
  5.969626745775E-08  2.653749510824E-08  6.804375127600E-09  4.554689189904E-11
  0.000000000000E+00  0.000000000000E+00  0.000000000000E+00  0.000000000000E+00
  0.000000000000E+00  0.000000000000E+00  0.000000000000E+00  0.000000000000E+00
  0.000000000000E+00  0.000000000000E+00  0.000000000000E+00  0.000000000000E+00
  0.000000000000E+00  0.000000000000E+00  0.000000000000E+00  0.000000000000E+00
  0.000000000000E+00  0.000000000000E+00  0.000000000000E+00  0.000000000000E+00
  0.000000000000E+00  0.000000000000E+00
</data>
</radfunc>
</pseudocore-charge>
<semilocal-potentials set="scalar_relativistic">
<slps n="3" l="s" rc="1.60303201901">
<radfunc>
<data npts="290">
  1.097230175876E+01  1.097089351282E+01  1.096668375076E+01  1.095966027647E+01
  1.094989494794E+01  1.093705408504E+01  1.092068782090E+01  1.090194611086E+01
  1.088087205829E+01  1.085629529747E+01  1.082859207093E+01  1.079847987621E+01
  1.076208744235E+01  1.072408022358E+01  1.067924802523E+01  1.063447998218E+01
  1.058293846551E+01  1.053409505373E+01  1.047920321791E+01  1.041753773691E+01
  1.034829386546E+01  1.028684690456E+01  1.021948357038E+01  1.014566650524E+01
  1.006481754353E+01  9.976316684337E+00  9.879501654930E+00  9.801012138490E+00
  9.717138480594E+00  9.627556271276E+00  9.531929708838E+00  9.429912796424E+00
  9.321150918417E+00  9.205282854249E+00  9.081943290689E+00  8.950765895980E+00
  8.811387019821E+00  8.663450081438E+00  8.559900238255E+00  8.452295554756E+00
  8.340542639027E+00  8.224553482118E+00  8.104246478191E+00  7.979547518562E+00
  7.850391157552E+00  7.716721846606E+00  7.578495231391E+00  7.435679504626E+00
  7.288256805225E+00  7.136224651938E+00  6.979597397017E+00  6.818407682656E+00
  6.652707879951E+00  6.482571487034E+00  6.308094459847E+00  6.129396445846E+00
  5.946621887812E+00  5.759940962008E+00  5.569550312247E+00  5.375673539173E+00
  5.178561402368E+00  4.978491691854E+00  4.775768725458E+00  4.570722429457E+00
  4.363706962117E+00  4.155098843506E+00  3.945294560348E+00  3.840072505848E+00
  3.734707622155E+00  3.629253682422E+00  3.523765054392E+00  3.418296560006E+00
  3.312903326531E+00  3.207640629447E+00  3.102563727459E+00  2.997727690062E+00
  2.893187218178E+00  2.788996458494E+00  2.685208812208E+00  2.581876739044E+00
  2.479051557452E+00  2.376783242074E+00  2.275120219670E+00  2.174109164796E+00
  2.073794796701E+00  1.974219678998E+00  1.875424023830E+00  1.777445502343E+00
  1.680319063455E+00  1.584076762977E+00  1.488747605303E+00  1.394357399965E+00
  1.300928635441E+00  1.208480372701E+00  1.117028161011E+00  1.026583978552E+00
  9.371562004445E-01  8.487495966928E-01  7.613653625528E-01  6.750011836877E-01
  5.896513383588E-01  5.053068386622E-01  4.219556125929E-01  3.395827284093E-01
  2.581706623544E-01  1.776996103842E-01  9.814784400817E-02  1.949210977252E-02
 -5.829192875392E-02 -1.352292083737E-01 -2.113447456924E-01 -2.866630821518E-01
 -3.612076991251E-01 -4.350004085342E-01 -5.080607254163E-01 -5.804052299939E-01
 -6.520469276596E-01 -7.229946166559E-01 -7.932522735476E-01 -8.628184685779E-01
 -9.316858224416E-01 -9.998405179909E-01 -1.067261880027E+00 -1.133922037099E+00
 -1.199785679137E+00 -1.264809924649E+00 -1.328944310695E+00 -1.392130918001E+00
 -1.454304642409E+00 -1.515393622228E+00 -1.575319829040E+00 -1.633999827025E+00
 -1.691345702981E+00 -1.747266165816E+00 -1.801667810503E+00 -1.854456537251E+00
 -1.905539112001E+00 -1.954824849461E+00 -2.002227394549E+00 -2.047666572770E+00
 -2.091070274448E+00 -2.132376332252E+00 -2.171534346094E+00 -2.208507404511E+00
 -2.243273647234E+00 -2.275827609999E+00 -2.306181290184E+00 -2.334364870658E+00
 -2.360427039801E+00 -2.384434848254E+00 -2.406473047891E+00 -2.426642866182E+00
 -2.445060179638E+00 -2.461853063844E+00 -2.477158714502E+00 -2.491119754177E+00
 -2.503879962672E+00 -2.515579494940E+00 -2.526349678539E+00 -2.536307511994E+00