<?xml version="1.0" encoding="UTF-8" ?>
<psml version="1.1" energy_unit="hartree" length_unit="bohr"
 uuid="f9a5b370-43c3-11e8-4b18-8891abfb89da"
 xmlns="http://esl.cecam.org/PSML/ns/1.1">
<provenance creator="ONCVPSP-3.3.0+psml-3.3.0-73 (fully-relativistic)"
 date="2018-04-19">
<annotation action="semilocal-pseudopotential-generation"
 action-cont="projectors-generation" />
<input-file name="oncvpsp-input">
<![CDATA[# atsym z nc nv iexc psfile
Ca 20 3 3 4 both
# n l f
1 0 2.0
2 0 2.0
2 1 6.0
3 0 2.0
3 1 6.0
4 0 2.0
# lmax
2
# l rc ep ncon nbas qcut
0 1.45 0.0 4 8 8.2
1 1.45 0.0 4 8 8.4
2 1.85 0.0 4 8 8.0
# lloc lpopt rc5 dvloc0
4 5 1.3 0.0
# l nproj debl
0 2 2.0
1 2 2.0
2 2 2.0
# icmod fcfact
3 6 1.28
# epsh1 epsh2 depsh
-12.0 12.0 0.02
# rlmax drl
4.0 0.01
 0
]]>
</input-file>
</provenance>
<pseudo-atom-spec atomic-label="Ca" atomic-number="20" z-pseudo="10"
 flavor="Hamann&apos;s oncvpsp" relativity="dirac" spin-dft="no"
 core-corrections="yes">
<annotation pseudo-energy="-36.8212785369" />
<exchange-correlation>
<annotation oncvpsp-xc-code="4" oncvpsp-xc-type="GGA -- Perdew-Burke-Ernzerhof" />
<libxc-info number-of-functionals="2">
<functional name="Perdew, Burke &amp; Ernzerhof (GGA)" type="exchange" id="101" />
<functional name="Perdew, Burke &amp; Ernzerhof (GGA)" type="correlation"
 id="130" />
</libxc-info>
</exchange-correlation>
<valence-configuration total-valence-charge="10">
<shell n="3" l="s" occupation="2" />
<shell n="3" l="p" occupation="6" />
<shell n="4" l="s" occupation="2" />
</valence-configuration>
</pseudo-atom-spec>
<grid npts="457">
<annotation type="sampled from oncvpsp log grid"
 recipe="r(i:1..N) = r1*exp(a*(i-1)) + r=0; resampled"
 recipe-cont="r1: scale; a: step" scale="0.250000000000E-04"
 step="0.119285708653E-01" delta="0.500000000000E-02" rmax="44.2219702658" />
<grid-data>
  0.000000000000E+00  5.049729012381E-03  1.008643741373E-02  1.513126450836E-02
  2.014686717874E-02  2.527186313341E-02  3.058619555721E-02  3.571676558720E-02
  4.072468755361E-02  4.588417062408E-02  5.108430610452E-02  5.619938960492E-02
  6.182664761078E-02  6.721083426378E-02  7.306390394756E-02  7.848487098793E-02
  8.430804598688E-02  8.948939793739E-02  9.498918222399E-02  1.008269688650E-01
  1.070235306009E-01  1.122538703661E-01  1.177398217141E-01  1.234938766215E-01
  1.295291375591E-01  1.358593473281E-01  1.424989203530E-01  1.476906872574E-01
  1.530716095851E-01  1.586485789732E-01  1.644287381471E-01  1.704194900681E-01
  1.766285074152E-01  1.830637424114E-01  1.897334370091E-01  1.966461334456E-01
  2.038106851838E-01  2.112362682513E-01  2.163363567119E-01  2.215595817084E-01
  2.269089162491E-01  2.323874051231E-01  2.379981666323E-01  2.437443943675E-01
  2.496293590251E-01  2.556564102694E-01  2.618289786390E-01  2.681505774992E-01
  2.746248050424E-01  2.812553463353E-01  2.880459754172E-01  2.950005574477E-01
  3.021230509067E-01  3.094175098478E-01  3.168880862056E-01  3.245390321589E-01
  3.323747025514E-01  3.403995573698E-01  3.486181642829E-01  3.570352012414E-01
  3.656554591401E-01  3.744838445456E-01  3.835253824883E-01  3.927852193231E-01
  4.022686256585E-01  4.119809993564E-01  4.219278686048E-01  4.269910030281E-01
  4.321148950644E-01  4.373002738052E-01  4.425478770908E-01  4.478584516159E-01
  4.532327530353E-01  4.586715460717E-01  4.641756046246E-01  4.697457118801E-01
  4.753826604227E-01  4.810872523477E-01  4.868602993759E-01  4.927026229684E-01
  4.986150544440E-01  5.045984350974E-01  5.106536163185E-01  5.167814597144E-01
  5.229828372309E-01  5.292586312777E-01  5.356097348530E-01  5.420370516713E-01
  5.485414962913E-01  5.551239942468E-01  5.617854821778E-01  5.685269079639E-01
  5.753492308595E-01  5.822534216298E-01  5.892404626894E-01  5.963113482416E-01
  6.034670844205E-01  6.107086894336E-01  6.180371937068E-01  6.254536400313E-01
  6.329590837116E-01  6.405545927162E-01  6.482412478288E-01  6.560201428027E-01
  6.638923845163E-01  6.718590931305E-01  6.799214022481E-01  6.880804590751E-01
  6.963374245840E-01  7.046934736790E-01  7.131497953631E-01  7.217075929075E-01
  7.303680840224E-01  7.391325010307E-01  7.480020910430E-01  7.569781161355E-01
  7.660618535292E-01  7.752545957715E-01  7.845576509208E-01  7.939723427318E-01
  8.035000108446E-01  8.131420109747E-01  8.228997151064E-01  8.327745116877E-01
  8.427678058280E-01  8.528810194979E-01  8.631155917319E-01  8.734729788327E-01
  8.839546545787E-01  8.945621104336E-01  9.052968557588E-01  9.161604180279E-01
  9.271543430442E-01  9.382801951608E-01  9.495395575027E-01  9.609340321927E-01
  9.724652405790E-01  9.841348234660E-01  9.959444413476E-01  1.007895774644E+00
  1.019990523939E+00  1.032230410227E+00  1.044617175149E+00  1.057152581251E+00
  1.069838412226E+00  1.082676473173E+00  1.095668590851E+00  1.108816613941E+00
  1.122122413309E+00  1.135587882268E+00  1.149214936856E+00  1.163005516098E+00
  1.176961582291E+00  1.191085121278E+00  1.205378142734E+00  1.219842680447E+00
  1.234480792612E+00  1.249294562123E+00  1.264286096869E+00  1.279457530031E+00
  1.294811020392E+00  1.310348752636E+00  1.326072937668E+00  1.341985812920E+00
  1.358089642675E+00  1.374386718387E+00  1.390879359008E+00  1.407569911316E+00
  1.424460750252E+00  1.441554279255E+00  1.458852930606E+00  1.476359165773E+00
  1.494075475762E+00  1.512004381471E+00  1.530148434049E+00  1.548510215258E+00
  1.567092337841E+00  1.585897445895E+00  1.604928215246E+00  1.624187353828E+00
  1.643677602074E+00  1.663401733299E+00  1.683362554099E+00  1.703562904748E+00
  1.724005659605E+00  1.744693727520E+00  1.765630052251E+00  1.786817612878E+00
  1.808259424232E+00  1.829958537323E+00  1.851918039771E+00  1.874141056248E+00
  1.896630748923E+00  1.919390317910E+00  1.942423001725E+00  1.965732077746E+00
  1.989320862679E+00  2.013192713031E+00  2.037351025587E+00  2.061799237894E+00
  2.086540828749E+00  2.111579318694E+00  2.136918270518E+00  2.162561289764E+00
  2.188512025242E+00  2.214774169545E+00  2.241351459579E+00  2.268247677094E+00
  2.295466649219E+00  2.323012249010E+00  2.350888395998E+00  2.379099056750E+00
  2.407648245431E+00  2.436540024376E+00  2.465778504669E+00  2.495367846725E+00
  2.525312260885E+00  2.555616008016E+00  2.586283400112E+00  2.617318800913E+00
  2.648726626524E+00  2.680511346043E+00  2.712677482195E+00  2.745229611982E+00
  2.778172367325E+00  2.811510435733E+00  2.845248560962E+00  2.879391543694E+00
  2.913944242218E+00  2.948911573124E+00  2.984298512002E+00  3.020110094146E+00
  3.056351415276E+00  3.093027632259E+00  3.130143963846E+00  3.167705691412E+00
  3.205718159709E+00  3.244186777626E+00  3.283117018957E+00  3.322514423185E+00
  3.362384596263E+00  3.402733211418E+00  3.443566009955E+00  3.484888802075E+00
  3.526707467700E+00  3.569027957312E+00  3.611856292800E+00  3.655198568313E+00
  3.699060951133E+00  3.743449682547E+00  3.788371078737E+00  3.833831531682E+00
  3.879837510062E+00  3.926395560183E+00  3.973512306905E+00  4.021194454588E+00
  4.069448788043E+00  4.118282173500E+00  4.167701559582E+00  4.217713978297E+00
  4.268326546036E+00  4.319546464589E+00  4.371381022164E+00  4.423837594430E+00
  4.476923645563E+00  4.530646729309E+00  4.585014490061E+00  4.640034663942E+00
  4.695715079909E+00  4.752063660868E+00  4.809088424799E+00  4.866797485896E+00
  4.925199055727E+00  4.984301444396E+00  5.044113061728E+00  5.104642418469E+00
  5.165898127491E+00  5.227888905021E+00  5.290623571881E+00  5.354111054743E+00
  5.418360387400E+00  5.483380712049E+00  5.549181280594E+00  5.615771455961E+00
  5.683160713432E+00  5.751358641994E+00  5.820374945698E+00  5.890219445046E+00
  5.960902078386E+00  6.032432903327E+00  6.104822098167E+00  6.178079963345E+00
  6.252216922905E+00  6.327243525980E+00  6.403170448292E+00  6.480008493671E+00
  6.557768595595E+00  6.636461818742E+00  6.716099360567E+00  6.796692552894E+00
  6.878252863529E+00  6.960791897891E+00  7.044321400666E+00  7.128853257474E+00
  7.214399496564E+00  7.300972290522E+00  7.388583958009E+00  7.477246965505E+00
  7.566973929091E+00  7.657777616240E+00  7.749670947635E+00  7.842666999006E+00
  7.936779002994E+00  8.032020351030E+00  8.128404595243E+00  8.225945450386E+00
  8.324656795790E+00  8.424552677340E+00  8.525647309468E+00  8.627955077181E+00
  8.731490538108E+00  8.836268424565E+00  8.942303645660E+00  9.049611289408E+00
  9.158206624881E+00  9.268105104379E+00  9.379322365632E+00  9.491874234019E+00
  9.605776724827E+00  9.721046045525E+00  9.837698598072E+00  9.955750981249E+00
  1.007521999302E+01  1.019612263294E+01  1.031847610454E+01  1.044229781779E+01
  1.056760539160E+01  1.069441665630E+01  1.082274965618E+01  1.095262265205E+01
  1.108405412388E+01  1.121706277336E+01  1.135166752664E+01  1.148788753696E+01
  1.162574218741E+01  1.176525109366E+01  1.190643410678E+01  1.204931131606E+01
  1.219390305185E+01  1.234022988848E+01  1.248831264714E+01  1.263817239890E+01
  1.278983046769E+01  1.294330843330E+01  1.309862813450E+01  1.325581167212E+01
  1.341488141218E+01  1.357585998913E+01  1.373877030900E+01  1.390363555271E+01
  1.407047917934E+01  1.423932492949E+01  1.441019682864E+01  1.458311919059E+01
  1.475811662087E+01  1.493521402032E+01  1.511443658857E+01  1.529580982763E+01
  1.547935954556E+01  1.566511186011E+01  1.585309320243E+01  1.604333032086E+01
  1.623585028471E+01  1.643068048813E+01  1.662784865398E+01  1.682738283783E+01
  1.702931143189E+01  1.723366316907E+01  1.744046712710E+01  1.764975273262E+01
  1.786154976541E+01  1.807588836260E+01  1.829279902295E+01  1.851231261123E+01
  1.873446036256E+01  1.895927388691E+01  1.918678517355E+01  1.941702659564E+01
  1.965003091478E+01  1.988583128576E+01  2.012446126119E+01  2.036595479633E+01
  2.061034625388E+01  2.085767040893E+01  2.110796245384E+01  2.136125800328E+01
  2.161759309932E+01  2.187700421651E+01  2.213952826711E+01  2.240520260632E+01
  2.267406503759E+01  2.294615381804E+01  2.322150766386E+01  2.350016575583E+01
  2.378216774490E+01  2.406755375783E+01  2.435636440293E+01  2.464864077576E+01
  2.494442446507E+01  2.524375755865E+01  2.554668264936E+01  2.585324284115E+01
  2.616348175524E+01  2.647744353631E+01  2.679517285874E+01  2.711671493305E+01
  2.744211551224E+01  2.777142089839E+01  2.810467794917E+01  2.844193408456E+01
  2.878323729358E+01  2.912863614110E+01  2.947817977479E+01  2.983191793209E+01
  3.018990094727E+01  3.055217975864E+01  3.091880591575E+01  3.128983158673E+01
  3.166530956578E+01  3.204529328056E+01  3.242983679993E+01  3.281899484153E+01
  3.321282277963E+01  3.361137665298E+01  3.401471317282E+01  3.442288973089E+01
  3.483596440767E+01  3.525399598056E+01  3.567704393232E+01  3.610516845951E+01
  3.653843048103E+01  3.697689164680E+01  3.742061434656E+01  3.786966171872E+01
  3.832409765934E+01  3.878398683126E+01  3.924939467323E+01  3.972038740931E+01
  4.019703205822E+01  4.067939644292E+01  4.116754920023E+01  4.166155979064E+01
  4.216149850812E+01  4.266743649022E+01  4.317944572810E+01  4.369759907684E+01
  4.422197026576E+01
</grid-data>
</grid>
<valence-charge total-charge="10" is-unscreening-charge="yes"
 rescaled-to-z-pseudo="no">
<radfunc>
<data npts="457">
  6.130770539258E-01  6.140878424800E-01  6.171093928645E-01  6.221502630379E-01
  6.291585657378E-01  6.383733281758E-01  6.501167479788E-01  6.635630463649E-01
  6.786807716717E-01  6.963088134971E-01  7.161765213354E-01  7.377687766654E-01
  7.638605979786E-01  7.911064549192E-01  8.232410127054E-01  8.553265606306E-01
  8.922644892156E-01  9.272681279356E-01  9.666074733089E-01  1.010805139958E+00
  1.060442758470E+00  1.104501539841E+00  1.152817059160E+00  1.205782955504E+00
  1.263825428718E+00  1.327405060346E+00  1.397018515997E+00  1.453508245125E+00
  1.513931400254E+00  1.578540159688E+00  1.647599324513E+00  1.721386326177E+00
  1.800191094831E+00  1.884315757753E+00  1.974074132164E+00  2.069790971069E+00
  2.171800914400E+00  2.280447090599E+00  2.356737205423E+00  2.436236974032E+00
  2.519051749676E+00  2.605286983116E+00  2.695047745683E+00  2.788438185981E+00
  2.885560913749E+00  2.986516303978E+00  3.091401713942E+00  3.200310605399E+00
  3.313331563848E+00  3.430547206396E+00  3.552032969495E+00  3.677855767671E+00
  3.808072514240E+00  3.942728495130E+00  4.081855587128E+00  4.225470312396E+00
  4.373571721797E+00  4.526139100697E+00  4.683129492339E+00  4.844475035854E+00
  5.010080118429E+00  5.179818344283E+00  5.353529326908E+00  5.531015315716E+00
  5.712037673749E+00  5.896313229723E+00  6.083510535306E+00  6.178087131604E+00
  6.273246067392E+00  6.368930641488E+00  6.465080425173E+00  6.561631147483E+00
  6.658514583147E+00  6.755658443865E+00  6.852986273704E+00  6.950417349428E+00
  7.047866586656E+00  7.145244452790E+00  7.242456887733E+00  7.339405233456E+00
  7.435986173569E+00  7.532091684068E+00  7.627608996545E+00  7.722420575152E+00
  7.816404108698E+00  7.909432519304E+00  8.001373989064E+00  8.092092006243E+00
  8.181445432512E+00  8.269288592817E+00  8.355471389422E+00  8.439839441716E+00
  8.522234253344E+00  8.602493408183E+00  8.680450796682E+00  8.755936873976E+00
  8.828778951146E+00  8.898801520863E+00  8.965826618580E+00  9.029674220225E+00
  9.090162677248E+00  9.147109189626E+00  9.200330317233E+00  9.249642529736E+00
  9.294862794877E+00  9.335809204726E+00  9.372301639132E+00  9.404162465262E+00
  9.431217271711E+00  9.453295635282E+00  9.470231918098E+00  9.481866092255E+00
  9.488044588777E+00  9.488621167166E+00  9.483457801348E+00  9.472425577375E+00
  9.455405597731E+00  9.432289886689E+00  9.402982290684E+00  9.367399367291E+00
  9.325471256021E+00  9.277142523809E+00  9.222372977805E+00  9.161138437853E+00
  9.093431460885E+00  9.019262009394E+00  8.938658056126E+00  8.851666117226E+00
  8.758351706221E+00  8.658799701520E+00  8.553114620400E+00  8.441420792942E+00
  8.323862429864E+00  8.200603578843E+00  8.071827964587E+00  7.937738708703E+00
  7.798557926224E+00  7.654526196574E+00  7.505901907671E+00  7.352960472855E+00
  7.195993421367E+00  7.035307364097E+00  6.871222837415E+00  6.704073028917E+00
  6.534202390021E+00  6.361965141367E+00  6.187723678065E+00  6.011846882870E+00
  5.834708356439E+00  5.656684574858E+00  5.478152985705E+00  5.299490054996E+00
  5.121069278387E+00  4.943259171156E+00  4.766421252480E+00  4.590908040651E+00
  4.417061076844E+00  4.245208996016E+00  4.075665664373E+00  3.908728403542E+00
  3.744676322084E+00  3.583768775275E+00  3.426243974001E+00  3.272317763260E+00
  3.122182590070E+00  2.976006679370E+00  2.833933434503E+00  2.696081076498E+00
  2.562542533499E+00  2.433385588372E+00  2.308653288692E+00  2.188365251321E+00
  2.072521805846E+00  1.961109777802E+00  1.854103917415E+00  1.751467040850E+00
  1.653151151514E+00  1.559098205337E+00  1.469240930824E+00  1.383503636012E+00
  1.301803004554E+00  1.224048877829E+00  1.150145020029E+00  1.079989863583E+00
  1.013477232477E+00  9.504970412740E-01  8.909359679095E-01  8.346780985186E-01
  7.816055428217E-01  7.315990187905E-01  6.845384055393E-01  6.403032636026E-01
  5.987733219653E-01  5.598289314248E-01  5.233514840679E-01  4.892237988464E-01
  4.573304734387E-01  4.275582027688E-01  3.997960647444E-01  3.739357739399E-01
  3.498719041091E-01  3.275020805477E-01  3.067271434374E-01  2.874512833958E-01
  2.695821505091E-01  2.530309381618E-01  2.377124429697E-01  2.235451021021E-01
  2.104510092242E-01  1.983559102376E-01  1.871891799374E-01  1.768837806812E-01
  1.673762041870E-01  1.586063976834E-01  1.505176758463E-01  1.430566202830E-01
  1.361729687610E-01  1.298194968687E-01  1.239518952611E-01  1.185286459420E-01
  1.135109010287E-01  1.088623670200E-01  1.045491967001E-01  1.005398895628E-01
  9.680520024685E-02  9.331805322983E-02  9.005346122194E-02  8.698844447912E-02
  8.410194861609E-02  8.137475927308E-02  7.878941293445E-02  7.633010408049E-02
  7.398258951918E-02  7.173409113158E-02  6.957319839139E-02  6.748977195012E-02
  6.547484939155E-02  6.352055401875E-02  6.162000729502E-02  5.976724534272E-02
  5.795713972648E-02  5.618532261028E-02  5.444811627808E-02  5.274246693914E-02
  5.106588269387E-02  4.941637550861E-02  4.779240703281E-02  4.619283808487E-02
  4.461688163212E-02  4.306405909185E-02  4.153415978448E-02  4.002720337467E-02
  3.854340514147E-02  3.708314392407E-02  3.564693259504E-02  3.423539091847E-02
  3.284922065614E-02  3.148918279056E-02  3.015607674042E-02  2.885072145076E-02
  2.757393824832E-02  2.632653536107E-02  2.510929401046E-02  2.392295599499E-02
  2.276821269442E-02  2.164569543380E-02  2.055596715691E-02  1.949951536649E-02
  1.847674629613E-02  1.748798028249E-02  1.653344830889E-02  1.561328968977E-02
  1.472755086216E-02  1.387618524357E-02  1.305905410761E-02  1.227592841904E-02
  1.152649156301E-02  1.081034287437E-02  1.012700190535E-02  9.475913316228E-03
  8.856452295076E-03  8.267930402134E-03  7.709601734366E-03  7.180669307343E-03
  6.680291555592E-03  6.207588858386E-03  5.761650005338E-03  5.341538524849E-03
  4.946298807825E-03  4.574961969037E-03  4.226551398435E-03  3.900087964606E-03
  3.594594841973E-03  3.309101942190E-03  3.042649938291E-03  2.794293877494E-03
  2.563106384975E-03  2.348180466542E-03  2.148631922815E-03  1.963601391390E-03
  1.792256036555E-03  1.633790908434E-03  1.487429995110E-03  1.352426992325E-03
  1.228065815839E-03  1.113660881588E-03  1.008557178353E-03  9.121301569600E-04
  8.237854589608E-04  7.429585065157E-04  6.691139737488E-04  6.017451582822E-04
  5.403732700192E-04  4.845466525681E-04  4.338399510385E-04  3.878532383205E-04
  3.462111104195E-04  3.085617599799E-04  2.745760358192E-04  2.439464951174E-04
  2.163864538692E-04  1.916290403217E-04  1.694262553633E-04  1.495480432138E-04
  1.317813752576E-04  1.159293494604E-04  1.018103074924E-04  8.925697142981E-05
  7.811560170928E-05  6.824517784547E-05  5.951660328583E-05  5.181193564821E-05
  4.502364346529E-05  3.905389043453E-05  3.381384804100E-05  2.922303728085E-05
  2.520870006426E-05  2.170520072032E-05  1.865345786390E-05  1.600040671841E-05
  1.369849182239E-05  1.170518988375E-05  9.982562388170E-06  8.496837417925E-06
  7.218019999337E-06  6.119530170955E-06  5.177867853269E-06  4.372303504768E-06
  3.684593469229E-06  3.098718855355E-06  2.600646742080E-06  2.178112470485E-06
  1.820421765405E-06  1.518271425539E-06  1.263587328878E-06  1.049378519245E-06
  8.696061683818E-07  7.190662448163E-07  5.932847644182E-07  4.884245466701E-07
  4.012024540665E-07  3.288161484539E-07  2.688794565096E-07  2.193654959319E-07
  1.785567734352E-07  1.450015245668E-07  1.174756230517E-07  9.494944331648E-08
  7.655911360694E-08  6.158164838304E-08  4.941349719464E-08  3.955209285363E-08
  3.158002431915E-08  2.515149926551E-08  1.998079781554E-08  1.583245244645E-08
  1.251291969876E-08  9.863537152016E-09  7.754584308629E-09  6.080288697319E-09
  4.754638828539E-09  3.707883770823E-09  2.883615234734E-09  2.236342315794E-09
  1.729481621018E-09  1.333696541864E-09  1.025529088921E-09  7.862761117617E-10
  6.010690235335E-10  4.581224571006E-10  3.481227116046E-10  2.637315090899E-10
  1.991845651857E-10  1.499678713537E-10  1.125574659511E-10  8.421090618519E-11
  6.280070419706E-11  4.668171216551E-11  3.458588115645E-11  2.553901819615E-11
  1.879516211020E-11  1.378502260102E-11  1.007560608453E-11  7.338709389042E-12
  5.326418571800E-12  3.852121898098E-12  2.775847924501E-12  1.992983852041E-12
  1.425626137506E-12  1.015973368818E-12  7.212977886489E-13  5.101325341081E-13
  3.593915618805E-13  2.522023887053E-13  1.762815068854E-13  1.227213335261E-13
  8.508801293017E-14  5.875308682348E-14  4.040040400626E-14  2.766380349095E-14
  1.886198599108E-14  1.280531293303E-14  8.655613512919E-15  5.824890297708E-15
  3.902446427918E-15  2.602688786333E-15  1.727906043196E-15  1.141844087853E-15
  7.510315989168E-16  4.916431030388E-16  3.203003048219E-16  2.076612337288E-16
  1.339734972403E-16  8.600469149489E-17  5.493375079395E-17  3.490952777160E-17
  2.207037726866E-17  1.388064226061E-17  8.683929422823E-18  5.403842058984E-18
  3.344574418137E-18  2.058745841965E-18  1.260258750692E-18  7.671546803150E-19
  4.643475437670E-19  2.794542850549E-19  1.672075372831E-19  9.945991055675E-20
  5.881074984102E-20  3.456612655149E-20  2.019289340606E-20  1.172379526669E-20
  6.764374880002E-21  0.000000000000E+00  0.000000000000E+00  0.000000000000E+00
  0.000000000000E+00
</data>
</radfunc>
</valence-charge>
<pseudocore-charge matching-radius="0.625453640031"
 number-of-continuous-derivatives="4">
<annotation model-charge-form="Teter function with specified parameters" />
<radfunc>
<data npts="256">
  5.437627609031E+01  5.436944131185E+01  5.434901222195E+01  5.431493735557E+01
  5.426757795872E+01  5.420533428206E+01  5.412605306722E+01  5.403533462778E+01
  5.393341483423E+01  5.381467169932E+01  5.368097173561E+01  5.353582201795E+01
  5.336064081626E+01  5.317796326741E+01  5.296283820273E+01  5.274839710268E+01
  5.250196494869E+01  5.226887056052E+01  5.200740593602E+01  5.171428307744E+01
  5.138587718677E+01  5.109508408160E+01  5.077695365255E+01  5.042911106537E+01
  5.004901608015E+01  4.963396047974E+01  4.918106779219E+01  4.881474376735E+01
  4.842408590059E+01  4.800770353651E+01  4.756416133401E+01  4.709198373728E+01
  4.658966070599E+01  4.605565488243E+01  4.548841038749E+01  4.488636345051E+01
  4.424795508932E+01  4.357164606516E+01  4.309897359125E+01  4.260835583949E+01
  4.209937527755E+01  4.157163188369E+01  4.102474667928E+01  4.045836555402E+01
  3.987216339247E+01  3.926584850775E+01  3.863916738623E+01  3.799190974359E+01
  3.732391388872E+01  3.663507238796E+01  3.592533801644E+01  3.519472997759E+01
  3.444334036500E+01  3.367134083294E+01  3.287898943317E+01  3.206663756596E+01
  3.123473698257E+01  3.038384676464E+01  2.951464019355E+01  2.862791140915E+01
  2.772458174318E+01  2.680570559801E+01  2.587247572627E+01  2.492622775194E+01
  2.396844375878E+01  2.300075475840E+01  2.202494183778E+01  2.153458647384E+01
  2.104293577594E+01  2.055025413173E+01  2.005681491219E+01  1.956290029378E+01
  1.906880104476E+01  1.857481627387E+01  1.808125313985E+01  1.758842652030E+01
  1.709665863827E+01  1.660627864541E+01  1.611762216046E+01  1.563103076178E+01
  1.514685143327E+01  1.466543596275E+01  1.418714029239E+01  1.371232382083E+01
  1.324134865688E+01  1.277457882520E+01  1.231237942435E+01  1.185511573806E+01
  1.140315230112E+01  1.095685192119E+01  1.051657465883E+01  1.008267676793E+01
  9.655509599517E+00  9.235418472217E+00  8.822741513231E+00  8.417808474045E+00
  8.020939525729E+00  7.632444039118E+00  7.252619355706E+00  6.881749555577E+00
  6.520104229224E+00  6.167937260571E+00  5.825485628986E+00  5.492968238521E+00
  5.170584782993E+00  4.858514655906E+00  4.556915914481E+00  4.265924307339E+00
  3.985652375515E+00  3.716188636599E+00  3.457596861765E+00  3.209915455375E+00
  2.973156946619E+00  2.747307602309E+00  2.532327169513E+00  2.328148756117E+00
  2.134678856659E+00  1.951797529961E+00  1.779358734000E+00  1.617190822379E+00
  1.465097205393E+00  1.322857177295E+00  1.190226909763E+00  1.066940609884E+00
  9.527118391929E-01  8.472349883603E-01  7.501869002193E-01  6.612286317548E-01
  5.800073436792E-01  5.061583041792E-01  4.393069914410E-01  3.790712776624E-01
  3.250636754754E-01  2.768936260816E-01  2.341698069846E-01  1.965024360197E-01
  1.635055474964E-01  1.347992156941E-01  1.100117007499E-01  8.878149216221E-02
  7.075922574252E-02  5.560945090045E-02  4.301222664801E-02  3.266452667239E-02
  2.428143623465E-02  1.759712649137E-02  1.236559507261E-02  8.361165339021E-03
  5.378740626033E-03  3.233813892410E-03  1.762237442848E-03  8.197616952486E-04
  2.813562112994E-04  4.033029437634E-05  7.274268663666E-06  1.088459738704E-04
  2.864299304085E-04  4.946989468882E-04  7.001095633555E-04  8.793635737992E-04
  1.017867894211E-03  1.108224206101E-03  1.148778105553E-03  1.142254950353E-03
  1.094506279934E-03  1.013386674104E-03  9.077763372128E-04  7.867596930766E-04
  6.589650253900E-04  5.320648893984E-04  4.124318551711E-04  3.049393249960E-04
  2.128928940616E-04  1.380741740887E-04  8.087632575643E-05  4.050886233539E-05
  1.524866319452E-05  2.714589235412E-06  1.445845986974E-07  4.656585461801E-06
  1.347778887495E-05  2.413066637260E-05  3.456830506725E-05  4.325596536791E-05
  4.919989334690E-05  5.192816044311E-05  5.143139454602E-05  4.807353041004E-05
  4.248401966748E-05  3.544324856534E-05  2.777223947775E-05  2.023616220079E-05
  1.346892575402E-05  7.923391102677E-06  3.848808289736E-06  1.294220675667E-06
  1.340649373213E-07  1.102600755319E-07  8.838912327488E-07  2.089242946784E-06
  3.383418454954E-06  4.486001584712E-06  5.204998139838E-06  5.447394787544E-06
  5.214821694107E-06  4.586726876898E-06  3.694926755524E-06  2.694216753941E-06
  1.733826658197E-06  9.339089465854E-07  3.700757999120E-07  6.745607866606E-08
  0.000000000000E+00  0.000000000000E+00  0.000000000000E+00  0.000000000000E+00
  0.000000000000E+00  0.000000000000E+00  0.000000000000E+00  0.000000000000E+00
  0.000000000000E+00  0.000000000000E+00  0.000000000000E+00  0.000000000000E+00
  0.000000000000E+00  0.000000000000E+00  0.000000000000E+00  0.000000000000E+00
  0.000000000000E+00  0.000000000000E+00  0.000000000000E+00  0.000000000000E+00
  0.000000000000E+00  0.000000000000E+00  0.000000000000E+00  0.000000000000E+00
  0.000000000000E+00  0.000000000000E+00  0.000000000000E+00  0.000000000000E+00
  0.000000000000E+00  0.000000000000E+00  0.000000000000E+00  0.000000000000E+00
  0.000000000000E+00  0.000000000000E+00  0.000000000000E+00  0.000000000000E+00
  0.000000000000E+00  0.000000000000E+00  0.000000000000E+00  0.000000000000E+00
  0.000000000000E+00  0.000000000000E+00  0.000000000000E+00  0.000000000000E+00
</data>
</radfunc>
</pseudocore-charge>
<semilocal-potentials set="scalar_relativistic">
<slps n="3" l="s" rc="1.45885293061">
<radfunc>
<data npts="256">
  8.653463345190E+00  8.648619243600E+00  8.634147436138E+00  8.610032926105E+00
  8.576566507273E+00  8.532669371433E+00  8.476899521195E+00  8.413279849628E+00
  8.342052573703E+00  8.259396912133E+00  8.166750580300E+00  8.066670851936E+00
  7.946572809396E+00  7.822129731308E+00  7.676611447116E+00  7.532650484621E+00
  7.368545790000E+00  7.214618064669E+00  7.043433538386E+00  6.853353366892E+00
  6.642656256697E+00  6.458054082723E+00  6.258174608125E+00  6.042068773625E+00
  5.808787740841E+00  5.557395728745E+00  5.286985080246E+00  5.071175214726E+00
  4.843840405466E+00  4.604665686551E+00  4.353367288651E+00  4.089698475063E+00
  3.813455662115E+00  3.524484759705E+00  3.222687652905E+00  2.908028730730E+00
  2.580541354036E+00  2.240334141555E+00  2.006552997416E+00  1.767278644789E+00
  1.522606356309E+00  1.272649820664E+00  1.017541677925E+00  7.574339780661E-01
  4.924985551948E-01  2.229273107977E-01 -5.106760000207E-02 -3.292536840981E-01
 -6.113781317928E-01 -8.971679464504E-01 -1.186330183492E+00 -1.478552298293E+00
 -1.773502600892E+00 -2.070830813778E+00 -2.370168727241E+00 -2.671130945161E+00
 -2.973315712439E+00 -3.276305813694E+00 -3.579669531573E+00 -3.882961651663E+00
 -4.185724500201E+00 -4.487488999910E+00 -4.787775729006E+00 -5.086095968343E+00
 -5.381952721992E+00 -5.674841697232E+00 -5.964252230914E+00 -6.107491971557E+00
 -6.249668151090E+00 -6.390715516428E+00 -6.530568564169E+00 -6.669161560657E+00
 -6.806428560698E+00 -6.942303424920E+00 -7.076719835804E+00 -7.209611312431E+00
 -7.340911224043E+00 -7.470552802443E+00 -7.598469153473E+00 -7.724593267667E+00
 -7.848858030323E+00 -7.971196231320E+00 -8.091540574973E+00 -8.209823690431E+00
 -8.325978143093E+00 -8.439936447748E+00 -8.551631084214E+00 -8.660994516354E+00
 -8.767959215657E+00 -8.872457690583E+00 -8.974422523181E+00 -9.073786414580E+00
 -9.170482241223E+00 -9.264443123786E+00 -9.355602510825E+00 -9.443894279307E+00
 -9.529252853993E+00 -9.611613347544E+00 -9.690911722772E+00 -9.767084977981E+00
 -9.840071355520E+00 -9.909810572656E+00 -9.976244072715E+00 -1.003931529293E+01
 -1.009896994396E+01 -1.015515629431E+01 -1.020782545151E+01 -1.025693163047E+01
 -1.030243239854E+01 -1.034428888661E+01 -1.038246595594E+01 -1.041693231167E+01
 -1.044766055637E+01 -1.047462717999E+01 -1.049781248635E+01 -1.051720046066E+01
 -1.053277858691E+01 -1.054453762778E+01 -1.055247138328E+01 -1.055657644605E+01
 -1.055685197240E+01 -1.055329948686E+01 -1.054592273657E+01 -1.053472760768E+01
 -1.051972211245E+01 -1.050091645054E+01 -1.047832314375E+01 -1.045195723891E+01
 -1.042183657015E+01 -1.038798206861E+01 -1.035041810624E+01 -1.030917285858E+01
 -1.026427867187E+01 -1.021577242015E+01 -1.016369583972E+01 -1.010809583050E+01
 -1.004902471689E+01 -9.986540464496E+00 -9.920706853223E+00 -9.851593611725E+00
 -9.779276522908E+00 -9.703837514452E+00 -9.625364752104E+00 -9.543952756359E+00
 -9.459702564878E+00 -9.372721963394E+00 -9.283125806864E+00 -9.191036450375E+00
 -9.096584305734E+00 -8.999908535203E+00 -8.901157888501E+00 -8.800491683288E+00
 -8.698080922985E+00 -8.594109539130E+00 -8.488775738467E+00 -8.382293427667E+00
 -8.274893680962E+00 -8.166826207798E+00 -8.058360769150E+00 -7.949788482056E+00
 -7.841422942703E+00 -7.733601089027E+00 -7.626683715153E+00 -7.521055542780E+00
 -7.417124746531E+00 -7.315321823629E+00 -7.216097700434E+00 -7.119920971956E+00
 -7.027274175384E+00 -6.938648449820E+00 -6.854543600418E+00 -6.773392513669E+00
 -6.693125877007E+00 -6.613799818490E+00 -6.535395147061E+00 -6.457906977339E+00
 -6.381325987475E+00 -6.305644409182E+00 -6.230854635688E+00 -6.156949099044E+00
 -6.083920041760E+00 -6.011759331259E+00 -5.940458330697E+00 -5.870007833589E+00
 -5.800398066803E+00 -5.731618758657E+00 -5.663659261957E+00 -5.596508715609E+00
 -5.530156224131E+00 -5.464591032647E+00 -5.399802676234E+00 -5.335781086802E+00