Cr    ONCVPSP-3.3.0  r_core=   1.10506   1.10506   1.40280
24.0000     14.0000      180506    zatom,zion,pspd
8      11   2     4   600     0    pspcod,pspxc,lmax,lloc,mmax,r2well
5.99000000  4.50000000  0.00000000    rchrg fchrg qchrg
2     3     2     0    nproj
3     1           extension_switch
4     3     0    nprojso
0                         1.1807024256690D+00  1.7111221988799D+01
1  0.0000000000000D+00  2.5712892703922D-08 -4.7011395887253D-09
2  1.0000000000000D-02 -7.0291162401762D-02  1.0990109706214D-01
3  2.0000000000000D-02 -1.3976214373776D-01  2.1935457659755D-01
4  3.0000000000000D-02 -2.0760545231148D-01  3.2791629139264D-01
5  4.0000000000000D-02 -2.7303869667790D-01  4.3514897996732D-01
6  5.0000000000000D-02 -3.3531644639821D-01  5.4062557346082D-01
7  6.0000000000000D-02 -3.9374128455038D-01  6.4393234281327D-01
8  7.0000000000000D-02 -4.4767381374328D-01  7.4467183870440D-01
9  8.0000000000000D-02 -4.9654140309525D-01  8.4246558141182D-01
10  9.0000000000000D-02 -5.3984549455942D-01  9.3695646340634D-01
11  1.0000000000000D-01 -5.7716732234106D-01  1.0278108339711D+00
12  1.1000000000000D-01 -6.0817193807461D-01  1.1147202422553D+00
13  1.2000000000000D-01 -6.3261047594173D-01  1.1974028227750D+00
14  1.3000000000000D-01 -6.5032063497971D-01  1.2756043152685D+00
15  1.4000000000000D-01 -6.6122539937664D-01  1.3490987188006D+00
16  1.5000000000000D-01 -6.6533006048398D-01  1.4176885878979D+00
17  1.6000000000000D-01 -6.6271764552202D-01  1.4812049860888D+00
18  1.7000000000000D-01 -6.5354289647011D-01  1.5395071193249D+00
19  1.8000000000000D-01 -6.3802497744878D-01  1.5924816782056D+00
20  1.9000000000000D-01 -6.1643911913114D-01  1.6400419235567D+00
21  2.0000000000000D-01 -5.8910743359540D-01  1.6821265545738D+00
22  2.1000000000000D-01 -5.5638915190761D-01  1.7186984023417D+00
23  2.2000000000000D-01 -5.1867054911296D-01  1.7497429939671D+00
24  2.3000000000000D-01 -4.7635482688416D-01  1.7752670337798D+00
25  2.4000000000000D-01 -4.2985222266311D-01  1.7952968480187D+00
26  2.5000000000000D-01 -3.7957060575539D-01  1.8098768381447D+00
27  2.6000000000000D-01 -3.2590680568126D-01  1.8190679854371D+00
28  2.7000000000000D-01 -2.6923889651777D-01  1.8229464459061D+00
29  2.8000000000000D-01 -2.0991963350689D-01  1.8216022698888D+00
30  2.9000000000000D-01 -1.4827120553537D-01  1.8151382751105D+00
31  3.0000000000000D-01 -8.4581430027012D-02  1.8036690956395D+00
32  3.1000000000000D-01 -1.9101476258426D-02  1.7873204222087D+00
33  3.2000000000000D-01  4.7954839856002D-02  1.7662284420089D+00
34  3.3000000000000D-01  1.1641019077149D-01  1.7405394784763D+00
35  3.4000000000000D-01  1.8612134788061D-01  1.7104098240024D+00
36  3.5000000000000D-01  2.5697535696408D-01  1.6760057511006D+00
37  3.6000000000000D-01  3.2888440930742D-01  1.6375036805694D+00
38  3.7000000000000D-01  4.0177957753485D-01  1.5950904787998D+00
39  3.8000000000000D-01  4.7560361926365D-01  1.5489638507592D+00
40  3.9000000000000D-01  5.5030308058422D-01  1.4993327905163D+00
41  4.0000000000000D-01  6.2581995431996D-01  1.4464180475874D+00
42  4.1000000000000D-01  7.0208316434818D-01  1.3904525650020D+00
43  4.2000000000000D-01  7.7900015646724D-01  1.3316818438877D+00
44  4.3000000000000D-01  8.5644887804886D-01  1.2703641896125D+00
45  4.4000000000000D-01  9.3427042287644D-01  1.2067707961148D+00
46  4.5000000000000D-01  1.0122626041929D+00  1.1411856279838D+00
47  4.6000000000000D-01  1.0901746983059D+00  1.0739050640648D+00
48  4.7000000000000D-01  1.1677035735622D+00  1.0052372717755D+00
49  4.8000000000000D-01  1.2444913857185D+00  9.3550128781003D-01
50  4.9000000000000D-01  1.3201249814827D+00  8.6502578831989D-01
51  5.0000000000000D-01  1.3941371082084D+00  7.9414753983060D-01
52  5.1000000000000D-01  1.4660094804746D+00  7.2320953086563D-01
53  5.2000000000000D-01  1.5351777047024D+00  6.5255879330123D-01
54  5.3000000000000D-01  1.6010380123108D+00  5.8254393162920D-01
55  5.4000000000000D-01  1.6629557015014D+00  5.1351238731882D-01
56  5.5000000000000D-01  1.7202751388437D+00  4.4580747411386D-01
57  5.6000000000000D-01  1.7723311256783D+00  3.7976522814136D-01
58  5.7000000000000D-01  1.8184613923358D+00  3.1571112390132D-01
59  5.8000000000000D-01  1.8580199461341D+00  2.5395671338995D-01
60  5.9000000000000D-01  1.8903909685133D+00  1.9479625053566D-01
61  6.0000000000000D-01  1.9150029329415D+00  1.3850336670559D-01
62  6.1000000000000D-01  1.9313425995061D+00  8.5327865089619D-02
63  6.2000000000000D-01  1.9389685346446D+00  3.5492702233575D-02
64  6.3000000000000D-01  1.9375238057830D+00 -1.0808776195025D-02
65  6.4000000000000D-01  1.9267475107576D+00 -5.3415281168737D-02
66  6.5000000000000D-01  1.9064848208672D+00 -9.2199647847645D-02
67  6.6000000000000D-01  1.8766952436285D+00 -1.2707047118986D-01
68  6.7000000000000D-01  1.8374588466339D+00 -1.5797326341524D-01
69  6.8000000000000D-01  1.7889802263557D+00 -1.8489109591256D-01
70  6.9000000000000D-01  1.7315900544353D+00 -2.0784469810055D-01
71  7.0000000000000D-01  1.6657440877211D+00 -2.2689199655131D-01
72  7.1000000000000D-01  1.5920195863496D+00 -2.4212708922443D-01
73  7.2000000000000D-01  1.5111091443172D+00 -2.5367866151223D-01
74  7.3000000000000D-01  1.4238119985929D+00 -2.6170786284030D-01
75  7.4000000000000D-01  1.3310229438201D+00 -2.6640567440611D-01
76  7.5000000000000D-01  1.2337190389579D+00 -2.6798981006566D-01
77  7.6000000000000D-01  1.1329443481342D+00 -2.6670120307686D-01
78  7.7000000000000D-01  1.0297930089815D+00 -2.6280014108579D-01
79  7.8000000000000D-01  9.2539096675723D-01 -2.5656212020587D-01
80  7.9000000000000D-01  8.2087675021062D-01 -2.4827349602699D-01
81  8.0000000000000D-01  7.1738169447825D-01 -2.3822701472479D-01
82  8.1000000000000D-01  6.1601003641769D-01 -2.2671731096362D-01
83  8.2000000000000D-01  5.1781931808184D-01 -2.1403646088531D-01
84  8.3000000000000D-01  4.2380153409676D-01 -2.0046967808341D-01
85  8.4000000000000D-01  3.3486544835905D-01 -1.8629123805246D-01
86  8.5000000000000D-01  2.5182048483211D-01 -1.7176071220628D-01
87  8.6000000000000D-01  1.7536256661855D-01 -1.5711958624798D-01
88  8.7000000000000D-01  1.0606223741375D-01 -1.4258832954906D-01
89  8.8000000000000D-01  4.4355351014899D-02 -1.2836397247829D-01
90  8.9000000000000D-01 -9.4634416342032D-03 -1.1461823742962D-01
91  9.0000000000000D-01 -5.5244240694345D-02 -1.0149625695662D-01
92  9.1000000000000D-01 -9.2982381089482D-02 -8.9115899152139D-02
93  9.2000000000000D-01 -1.2281582230689D-01 -7.7567706532115D-02
94  9.3000000000000D-01 -1.4501948743222D-01 -6.6915440502720D-02
95  9.4000000000000D-01 -1.5999666691506D-01 -5.7197209337088D-02
96  9.5000000000000D-01 -1.6826767330300D-01 -4.8427143789891D-02
97  9.6000000000000D-01 -1.7045600058000D-01 -4.0597571358500D-02
98  9.7000000000000D-01 -1.6727230417931D-01 -3.3681628068809D-02
99  9.8000000000000D-01 -1.5949657366865D-01 -2.7636235817405D-02
100  9.9000000000000D-01 -1.4795891841604D-01 -2.2405363951064D-02
101  1.0000000000000D+00 -1.3351942504166D-01 -1.7923486330005D-02
102  1.0100000000000D+00 -1.1704757504642D-01 -1.4119139425149D-02
103  1.0200000000000D+00 -9.9401729144950D-02 -1.0918483530394D-02
104  1.0300000000000D+00 -8.1409191423881D-02 -8.2487679405786D-03
105  1.0400000000000D+00 -6.3847362166164D-02 -6.0416018241300D-03
106  1.0500000000000D+00 -4.7426471234645D-02 -4.2359358507647D-03
107  1.0600000000000D+00 -3.2774357028846D-02 -2.7806648844701D-03
108  1.0700000000000D+00 -2.0429211394385D-02 -1.6369919611885D-03
109  1.0800000000000D+00 -1.0792320115179D-02 -7.7879635205193D-04
110  1.0900000000000D+00 -4.1984786326858D-03 -1.9605732113328D-04
111  1.1000000000000D+00 -1.0836669774982D-03  1.0744568493736D-04
112  1.1100000000000D+00 -1.6813856361084D-04  1.0885990862805D-04
113  1.1200000000000D+00  5.6817581622423D-06 -1.0132936122096D-05
114  1.1300000000000D+00  7.9699403796757D-07 -6.4209795184013D-06
115  1.1400000000000D+00 -2.9393974088730D-06  3.8437543211426D-06
116  1.1500000000000D+00  1.2434938197240D-06 -3.8183400315478D-07
117  1.1600000000000D+00  0.0000000000000D+00  0.0000000000000D+00
118  1.1700000000000D+00  0.0000000000000D+00  0.0000000000000D+00
119  1.1800000000000D+00  0.0000000000000D+00  0.0000000000000D+00
120  1.1900000000000D+00  0.0000000000000D+00  0.0000000000000D+00
121  1.2000000000000D+00  0.0000000000000D+00  0.0000000000000D+00
122  1.2100000000000D+00  0.0000000000000D+00  0.0000000000000D+00
123  1.2200000000000D+00  0.0000000000000D+00  0.0000000000000D+00
124  1.2300000000000D+00  0.0000000000000D+00  0.0000000000000D+00
125  1.2400000000000D+00  0.0000000000000D+00  0.0000000000000D+00
126  1.2500000000000D+00  0.0000000000000D+00  0.0000000000000D+00
127  1.2600000000000D+00  0.0000000000000D+00  0.0000000000000D+00
128  1.2700000000000D+00  0.0000000000000D+00  0.0000000000000D+00
129  1.2800000000000D+00  0.0000000000000D+00  0.0000000000000D+00
130  1.2900000000000D+00  0.0000000000000D+00  0.0000000000000D+00
131  1.3000000000000D+00  0.0000000000000D+00  0.0000000000000D+00
132  1.3100000000000D+00  0.0000000000000D+00  0.0000000000000D+00
133  1.3200000000000D+00  0.0000000000000D+00  0.0000000000000D+00
134  1.3300000000000D+00  0.0000000000000D+00  0.0000000000000D+00
135  1.3400000000000D+00  0.0000000000000D+00  0.0000000000000D+00
136  1.3500000000000D+00  0.0000000000000D+00  0.0000000000000D+00
137  1.3600000000000D+00  0.0000000000000D+00  0.0000000000000D+00
138  1.3700000000000D+00  0.0000000000000D+00  0.0000000000000D+00
139  1.3800000000000D+00  0.0000000000000D+00  0.0000000000000D+00
140  1.3900000000000D+00  0.0000000000000D+00  0.0000000000000D+00
141  1.4000000000000D+00  0.0000000000000D+00  0.0000000000000D+00
142  1.4100000000000D+00  0.0000000000000D+00  0.0000000000000D+00
143  1.4200000000000D+00  0.0000000000000D+00  0.0000000000000D+00
144  1.4300000000000D+00  0.0000000000000D+00  0.0000000000000D+00
145  1.4400000000000D+00  0.0000000000000D+00  0.0000000000000D+00
146  1.4500000000000D+00  0.0000000000000D+00  0.0000000000000D+00
147  1.4600000000000D+00  0.0000000000000D+00  0.0000000000000D+00
148  1.4700000000000D+00  0.0000000000000D+00  0.0000000000000D+00
149  1.4800000000000D+00  0.0000000000000D+00  0.0000000000000D+00
150  1.4900000000000D+00  0.0000000000000D+00  0.0000000000000D+00
151  1.5000000000000D+00  0.0000000000000D+00  0.0000000000000D+00
152  1.5100000000000D+00  0.0000000000000D+00  0.0000000000000D+00
153  1.5200000000000D+00  0.0000000000000D+00  0.0000000000000D+00
154  1.5300000000000D+00  0.0000000000000D+00  0.0000000000000D+00
155  1.5400000000000D+00  0.0000000000000D+00  0.0000000000000D+00
156  1.5500000000000D+00  0.0000000000000D+00  0.0000000000000D+00
157  1.5600000000000D+00  0.0000000000000D+00  0.0000000000000D+00
158  1.5700000000000D+00  0.0000000000000D+00  0.0000000000000D+00
159  1.5800000000000D+00  0.0000000000000D+00  0.0000000000000D+00
160  1.5900000000000D+00  0.0000000000000D+00  0.0000000000000D+00
161  1.6000000000000D+00  0.0000000000000D+00  0.0000000000000D+00
162  1.6100000000000D+00  0.0000000000000D+00  0.0000000000000D+00
163  1.6200000000000D+00  0.0000000000000D+00  0.0000000000000D+00
164  1.6300000000000D+00  0.0000000000000D+00  0.0000000000000D+00
165  1.6400000000000D+00  0.0000000000000D+00  0.0000000000000D+00
166  1.6500000000000D+00  0.0000000000000D+00  0.0000000000000D+00
167  1.6600000000000D+00  0.0000000000000D+00  0.0000000000000D+00
168  1.6700000000000D+00  0.0000000000000D+00  0.0000000000000D+00
169  1.6800000000000D+00  0.0000000000000D+00  0.0000000000000D+00
170  1.6900000000000D+00  0.0000000000000D+00  0.0000000000000D+00
171  1.7000000000000D+00  0.0000000000000D+00  0.0000000000000D+00
172  1.7100000000000D+00  0.0000000000000D+00  0.0000000000000D+00
173  1.7200000000000D+00  0.0000000000000D+00  0.0000000000000D+00
174  1.7300000000000D+00  0.0000000000000D+00  0.0000000000000D+00
175  1.7400000000000D+00  0.0000000000000D+00  0.0000000000000D+00
176  1.7500000000000D+00  0.0000000000000D+00  0.0000000000000D+00
177  1.7600000000000D+00  0.0000000000000D+00  0.0000000000000D+00
178  1.7700000000000D+00  0.0000000000000D+00  0.0000000000000D+00
179  1.7800000000000D+00  0.0000000000000D+00  0.0000000000000D+00
180  1.7900000000000D+00  0.0000000000000D+00  0.0000000000000D+00
181  1.8000000000000D+00  0.0000000000000D+00  0.0000000000000D+00
182  1.8100000000000D+00  0.0000000000000D+00  0.0000000000000D+00
183  1.8200000000000D+00  0.0000000000000D+00  0.0000000000000D+00
184  1.8300000000000D+00  0.0000000000000D+00  0.0000000000000D+00
185  1.8400000000000D+00  0.0000000000000D+00  0.0000000000000D+00
186  1.8500000000000D+00  0.0000000000000D+00  0.0000000000000D+00
187  1.8600000000000D+00  0.0000000000000D+00  0.0000000000000D+00
188  1.8700000000000D+00  0.0000000000000D+00  0.0000000000000D+00
189  1.8800000000000D+00  0.0000000000000D+00  0.0000000000000D+00
190  1.8900000000000D+00  0.0000000000000D+00  0.0000000000000D+00
191  1.9000000000000D+00  0.0000000000000D+00  0.0000000000000D+00
192  1.9100000000000D+00  0.0000000000000D+00  0.0000000000000D+00
193  1.9200000000000D+00  0.0000000000000D+00  0.0000000000000D+00
194  1.9300000000000D+00  0.0000000000000D+00  0.0000000000000D+00
195  1.9400000000000D+00  0.0000000000000D+00  0.0000000000000D+00
196  1.9500000000000D+00  0.0000000000000D+00  0.0000000000000D+00
197  1.9600000000000D+00  0.0000000000000D+00  0.0000000000000D+00
198  1.9700000000000D+00  0.0000000000000D+00  0.0000000000000D+00
199  1.9800000000000D+00  0.0000000000000D+00  0.0000000000000D+00
200  1.9900000000000D+00  0.0000000000000D+00  0.0000000000000D+00
201  2.0000000000000D+00  0.0000000000000D+00  0.0000000000000D+00
202  2.0100000000000D+00  0.0000000000000D+00  0.0000000000000D+00
203  2.0200000000000D+00  0.0000000000000D+00  0.0000000000000D+00
204  2.0300000000000D+00  0.0000000000000D+00  0.0000000000000D+00
205  2.0400000000000D+00  0.0000000000000D+00  0.0000000000000D+00
206  2.0500000000000D+00  0.0000000000000D+00  0.0000000000000D+00
207  2.0600000000000D+00  0.0000000000000D+00  0.0000000000000D+00
208  2.0700000000000D+00  0.0000000000000D+00  0.0000000000000D+00
209  2.0800000000000D+00  0.0000000000000D+00  0.0000000000000D+00
210  2.0900000000000D+00  0.0000000000000D+00  0.0000000000000D+00
211  2.1000000000000D+00  0.0000000000000D+00  0.0000000000000D+00
212  2.1100000000000D+00  0.0000000000000D+00  0.0000000000000D+00
213  2.1200000000000D+00  0.0000000000000D+00  0.0000000000000D+00
214  2.1300000000000D+00  0.0000000000000D+00  0.0000000000000D+00
215  2.1400000000000D+00  0.0000000000000D+00  0.0000000000000D+00
216  2.1500000000000D+00  0.0000000000000D+00  0.0000000000000D+00
217  2.1600000000000D+00  0.0000000000000D+00  0.0000000000000D+00
218  2.1700000000000D+00  0.0000000000000D+00  0.0000000000000D+00
219  2.1800000000000D+00  0.0000000000000D+00  0.0000000000000D+00
220  2.1900000000000D+00  0.0000000000000D+00  0.0000000000000D+00
221  2.2000000000000D+00  0.0000000000000D+00  0.0000000000000D+00
222  2.2100000000000D+00  0.0000000000000D+00  0.0000000000000D+00
223  2.2200000000000D+00  0.0000000000000D+00  0.0000000000000D+00
224  2.2300000000000D+00  0.0000000000000D+00  0.0000000000000D+00
225  2.2400000000000D+00  0.0000000000000D+00  0.0000000000000D+00
226  2.2500000000000D+00  0.0000000000000D+00  0.0000000000000D+00
227  2.2600000000000D+00  0.0000000000000D+00  0.0000000000000D+00
228  2.2700000000000D+00  0.0000000000000D+00  0.0000000000000D+00
229  2.2800000000000D+00  0.0000000000000D+00  0.0000000000000D+00
230  2.2900000000000D+00  0.0000000000000D+00  0.0000000000000D+00
231  2.3000000000000D+00  0.0000000000000D+00  0.0000000000000D+00
232  2.3100000000000D+00  0.0000000000000D+00  0.0000000000000D+00
233  2.3200000000000D+00  0.0000000000000D+00  0.0000000000000D+00
234  2.3300000000000D+00  0.0000000000000D+00  0.0000000000000D+00
235  2.3400000000000D+00  0.0000000000000D+00  0.0000000000000D+00
236  2.3500000000000D+00  0.0000000000000D+00  0.0000000000000D+00
237  2.3600000000000D+00  0.0000000000000D+00  0.0000000000000D+00
238  2.3700000000000D+00  0.0000000000000D+00  0.0000000000000D+00
239  2.3800000000000D+00  0.0000000000000D+00  0.0000000000000D+00
240  2.3900000000000D+00  0.0000000000000D+00  0.0000000000000D+00
241  2.4000000000000D+00  0.0000000000000D+00  0.0000000000000D+00
242  2.4100000000000D+00  0.0000000000000D+00  0.0000000000000D+00
243  2.4200000000000D+00  0.0000000000000D+00  0.0000000000000D+00
244  2.4300000000000D+00  0.0000000000000D+00  0.0000000000000D+00
245  2.4400000000000D+00  0.0000000000000D+00  0.0000000000000D+00
246  2.4500000000000D+00  0.0000000000000D+00  0.0000000000000D+00
247  2.4600000000000D+00  0.0000000000000D+00  0.0000000000000D+00
248  2.4700000000000D+00  0.0000000000000D+00  0.0000000000000D+00
249  2.4800000000000D+00  0.0000000000000D+00  0.0000000000000D+00
250  2.4900000000000D+00  0.0000000000000D+00  0.0000000000000D+00
251  2.5000000000000D+00  0.0000000000000D+00  0.0000000000000D+00
252  2.5100000000000D+00  0.0000000000000D+00  0.0000000000000D+00
253  2.5200000000000D+00  0.0000000000000D+00  0.0000000000000D+00
254  2.5300000000000D+00  0.0000000000000D+00  0.0000000000000D+00
255  2.5400000000000D+00  0.0000000000000D+00  0.0000000000000D+00
256  2.5500000000000D+00  0.0000000000000D+00  0.0000000000000D+00
257  2.5600000000000D+00  0.0000000000000D+00  0.0000000000000D+00
258  2.5700000000000D+00  0.0000000000000D+00  0.0000000000000D+00
259  2.5800000000000D+00  0.0000000000000D+00  0.0000000000000D+00
260  2.5900000000000D+00  0.0000000000000D+00  0.0000000000000D+00
261  2.6000000000000D+00  0.0000000000000D+00  0.0000000000000D+00
262  2.6100000000000D+00  0.0000000000000D+00  0.0000000000000D+00
263  2.6200000000000D+00  0.0000000000000D+00  0.0000000000000D+00
264  2.6300000000000D+00  0.0000000000000D+00  0.0000000000000D+00
265  2.6400000000000D+00  0.0000000000000D+00  0.0000000000000D+00
266  2.6500000000000D+00  0.0000000000000D+00  0.0000000000000D+00
267  2.6600000000000D+00  0.0000000000000D+00  0.0000000000000D+00
268  2.6700000000000D+00  0.0000000000000D+00  0.0000000000000D+00
269  2.6800000000000D+00  0.0000000000000D+00  0.0000000000000D+00
270  2.6900000000000D+00  0.0000000000000D+00  0.0000000000000D+00
271  2.7000000000000D+00  0.0000000000000D+00  0.0000000000000D+00
272  2.7100000000000D+00  0.0000000000000D+00  0.0000000000000D+00
273  2.7200000000000D+00  0.0000000000000D+00  0.0000000000000D+00
274  2.7300000000000D+00  0.0000000000000D+00  0.0000000000000D+00
275  2.7400000000000D+00  0.0000000000000D+00  0.0000000000000D+00
276  2.7500000000000D+00  0.0000000000000D+00  0.0000000000000D+00
277  2.7600000000000D+00  0.0000000000000D+00  0.0000000000000D+00
278  2.7700000000000D+00  0.0000000000000D+00  0.0000000000000D+00
279  2.7800000000000D+00  0.0000000000000D+00  0.0000000000000D+00
280  2.7900000000000D+00  0.0000000000000D+00  0.0000000000000D+00
281  2.8000000000000D+00  0.0000000000000D+00  0.0000000000000D+00
282  2.8100000000000D+00  0.0000000000000D+00  0.0000000000000D+00
283  2.8200000000000D+00  0.0000000000000D+00  0.0000000000000D+00
284  2.8300000000000D+00  0.0000000000000D+00  0.0000000000000D+00
285  2.8400000000000D+00  0.0000000000000D+00  0.0000000000000D+00
286  2.8500000000000D+00  0.0000000000000D+00  0.0000000000000D+00
287  2.8600000000000D+00  0.0000000000000D+00  0.0000000000000D+00
288  2.8700000000000D+00  0.0000000000000D+00  0.0000000000000D+00
289  2.8800000000000D+00  0.0000000000000D+00  0.0000000000000D+00
290  2.8900000000000D+00  0.0000000000000D+00  0.0000000000000D+00
291  2.9000000000000D+00  0.0000000000000D+00  0.0000000000000D+00
292  2.9100000000000D+00  0.0000000000000D+00  0.0000000000000D+00
293  2.9200000000000D+00  0.0000000000000D+00  0.0000000000000D+00
294  2.9300000000000D+00  0.0000000000000D+00  0.0000000000000D+00
295  2.9400000000000D+00  0.0000000000000D+00  0.0000000000000D+00
296  2.9500000000000D+00  0.0000000000000D+00  0.0000000000000D+00
297  2.9600000000000D+00  0.0000000000000D+00  0.0000000000000D+00
298  2.9700000000000D+00  0.0000000000000D+00  0.0000000000000D+00
299  2.9800000000000D+00  0.0000000000000D+00  0.0000000000000D+00
300  2.9900000000000D+00  0.0000000000000D+00  0.0000000000000D+00
301  3.0000000000000D+00  0.0000000000000D+00  0.0000000000000D+00
302  3.0100000000000D+00  0.0000000000000D+00  0.0000000000000D+00
303  3.0200000000000D+00  0.0000000000000D+00  0.0000000000000D+00
304  3.0300000000000D+00  0.0000000000000D+00  0.0000000000000D+00
305  3.0400000000000D+00  0.0000000000000D+00  0.0000000000000D+00
306  3.0500000000000D+00  0.0000000000000D+00  0.0000000000000D+00
307  3.0600000000000D+00  0.0000000000000D+00  0.0000000000000D+00
308  3.0700000000000D+00  0.0000000000000D+00  0.0000000000000D+00
309  3.0800000000000D+00  0.0000000000000D+00  0.0000000000000D+00
310  3.0900000000000D+00  0.0000000000000D+00  0.0000000000000D+00
311  3.1000000000000D+00  0.0000000000000D+00  0.0000000000000D+00
312  3.1100000000000D+00  0.0000000000000D+00  0.0000000000000D+00
313  3.1200000000000D+00  0.0000000000000D+00  0.0000000000000D+00
314  3.1300000000000D+00  0.0000000000000D+00  0.0000000000000D+00
315  3.1400000000000D+00  0.0000000000000D+00  0.0000000000000D+00
316  3.1500000000000D+00  0.0000000000000D+00  0.0000000000000D+00
317  3.1600000000000D+00  0.0000000000000D+00  0.0000000000000D+00
318  3.1700000000000D+00  0.0000000000000D+00  0.0000000000000D+00
319  3.1800000000000D+00  0.0000000000000D+00  0.0000000000000D+00
320  3.1900000000000D+00  0.0000000000000D+00  0.0000000000000D+00
321  3.2000000000000D+00  0.0000000000000D+00  0.0000000000000D+00
322  3.2100000000000D+00  0.0000000000000D+00  0.0000000000000D+00
323  3.2200000000000D+00  0.0000000000000D+00  0.0000000000000D+00
324  3.2300000000000D+00  0.0000000000000D+00  0.0000000000000D+00
325  3.2400000000000D+00  0.0000000000000D+00  0.0000000000000D+00
326  3.2500000000000D+00  0.0000000000000D+00  0.0000000000000D+00
327  3.2600000000000D+00  0.0000000000000D+00  0.0000000000000D+00
328  3.2700000000000D+00  0.0000000000000D+00  0.0000000000000D+00
329  3.2800000000000D+00  0.0000000000000D+00  0.0000000000000D+00
330  3.2900000000000D+00  0.0000000000000D+00  0.0000000000000D+00
331  3.3000000000000D+00  0.0000000000000D+00  0.0000000000000D+00
332  3.3100000000000D+00  0.0000000000000D+00  0.0000000000000D+00
333  3.3200000000000D+00  0.0000000000000D+00  0.0000000000000D+00
334  3.3300000000000D+00  0.0000000000000D+00  0.0000000000000D+00
335  3.3400000000000D+00  0.0000000000000D+00  0.0000000000000D+00
336  3.3500000000000D+00  0.0000000000000D+00  0.0000000000000D+00
337  3.3600000000000D+00  0.0000000000000D+00  0.0000000000000D+00
338  3.3700000000000D+00  0.0000000000000D+00  0.0000000000000D+00
339  3.3800000000000D+00  0.0000000000000D+00  0.0000000000000D+00
340  3.3900000000000D+00  0.0000000000000D+00  0.0000000000000D+00
341  3.4000000000000D+00  0.0000000000000D+00  0.0000000000000D+00
342  3.4100000000000D+00  0.0000000000000D+00  0.0000000000000D+00
343  3.4200000000000D+00  0.0000000000000D+00  0.0000000000000D+00
344  3.4300000000000D+00  0.0000000000000D+00  0.0000000000000D+00
345  3.4400000000000D+00  0.0000000000000D+00  0.0000000000000D+00
346  3.4500000000000D+00  0.0000000000000D+00  0.0000000000000D+00
347  3.4600000000000D+00  0.0000000000000D+00  0.0000000000000D+00
348  3.4700000000000D+00  0.0000000000000D+00  0.0000000000000D+00
349  3.4800000000000D+00  0.0000000000000D+00  0.0000000000000D+00
350  3.4900000000000D+00  0.0000000000000D+00  0.0000000000000D+00
351  3.5000000000000D+00  0.0000000000000D+00  0.0000000000000D+00
352  3.5100000000000D+00  0.0000000000000D+00  0.0000000000000D+00
353  3.5200000000000D+00  0.0000000000000D+00  0.0000000000000D+00
354  3.5300000000000D+00  0.0000000000000D+00  0.0000000000000D+00
355  3.5400000000000D+00  0.0000000000000D+00  0.0000000000000D+00
356  3.5500000000000D+00  0.0000000000000D+00  0.0000000000000D+00
357  3.5600000000000D+00  0.0000000000000D+00  0.0000000000000D+00
358  3.5700000000000D+00  0.0000000000000D+00  0.0000000000000D+00
359  3.5800000000000D+00  0.0000000000000D+00  0.0000000000000D+00
360  3.5900000000000D+00  0.0000000000000D+00  0.0000000000000D+00
361  3.6000000000000D+00  0.0000000000000D+00  0.0000000000000D+00
362  3.6100000000000D+00  0.0000000000000D+00  0.0000000000000D+00
363  3.6200000000000D+00  0.0000000000000D+00  0.0000000000000D+00
364  3.6300000000000D+00  0.0000000000000D+00  0.0000000000000D+00
365  3.6400000000000D+00  0.0000000000000D+00  0.0000000000000D+00
366  3.6500000000000D+00  0.0000000000000D+00  0.0000000000000D+00
367  3.6600000000000D+00  0.0000000000000D+00  0.0000000000000D+00
368  3.6700000000000D+00  0.0000000000000D+00  0.0000000000000D+00
369  3.6800000000000D+00  0.0000000000000D+00  0.0000000000000D+00
370  3.6900000000000D+00  0.0000000000000D+00  0.0000000000000D+00
371  3.7000000000000D+00  0.0000000000000D+00  0.0000000000000D+00
372  3.7100000000000D+00  0.0000000000000D+00  0.0000000000000D+00
373  3.7200000000000D+00  0.0000000000000D+00  0.0000000000000D+00
374  3.7300000000000D+00  0.0000000000000D+00  0.0000000000000D+00
375  3.7400000000000D+00  0.0000000000000D+00  0.0000000000000D+00
376  3.7500000000000D+00  0.0000000000000D+00  0.0000000000000D+00
377  3.7600000000000D+00  0.0000000000000D+00  0.0000000000000D+00
378  3.7700000000000D+00  0.0000000000000D+00  0.0000000000000D+00
379  3.7800000000000D+00  0.0000000000000D+00  0.0000000000000D+00
380  3.7900000000000D+00  0.0000000000000D+00  0.0000000000000D+00
381  3.8000000000000D+00  0.0000000000000D+00  0.0000000000000D+00
382  3.8100000000000D+00  0.0000000000000D+00  0.0000000000000D+00
383  3.8200000000000D+00  0.0000000000000D+00  0.0000000000000D+00
384  3.8300000000000D+00  0.0000000000000D+00  0.0000000000000D+00
385  3.8400000000000D+00  0.0000000000000D+00  0.0000000000000D+00
386  3.8500000000000D+00  0.0000000000000D+00  0.0000000000000D+00
387  3.8600000000000D+00  0.0000000000000D+00  0.0000000000000D+00
388  3.8700000000000D+00  0.0000000000000D+00  0.0000000000000D+00
389  3.8800000000000D+00  0.0000000000000D+00  0.0000000000000D+00
390  3.8900000000000D+00  0.0000000000000D+00  0.0000000000000D+00
391  3.9000000000000D+00  0.0000000000000D+00  0.0000000000000D+00
392  3.9100000000000D+00  0.0000000000000D+00  0.0000000000000D+00
393  3.9200000000000D+00  0.0000000000000D+00  0.0000000000000D+00
394  3.9300000000000D+00  0.0000000000000D+00  0.0000000000000D+00
395  3.9400000000000D+00  0.0000000000000D+00  0.0000000000000D+00
396  3.9500000000000D+00  0.0000000000000D+00  0.0000000000000D+00
397  3.9600000000000D+00  0.0000000000000D+00  0.0000000000000D+00
398  3.9700000000000D+00  0.0000000000000D+00  0.0000000000000D+00
399  3.9800000000000D+00  0.0000000000000D+00  0.0000000000000D+00
400  3.9900000000000D+00  0.0000000000000D+00  0.0000000000000D+00
401  4.0000000000000D+00  0.0000000000000D+00  0.0000000000000D+00
402  4.0100000000000D+00  0.0000000000000D+00  0.0000000000000D+00
403  4.0200000000000D+00  0.0000000000000D+00  0.0000000000000D+00
404  4.0300000000000D+00  0.0000000000000D+00  0.0000000000000D+00
405  4.0400000000000D+00  0.0000000000000D+00  0.0000000000000D+00
406  4.0500000000000D+00  0.0000000000000D+00  0.0000000000000D+00
407  4.0600000000000D+00  0.0000000000000D+00  0.0000000000000D+00
408  4.0700000000000D+00  0.0000000000000D+00  0.0000000000000D+00
409  4.0800000000000D+00  0.0000000000000D+00  0.0000000000000D+00
410  4.0900000000000D+00  0.0000000000000D+00  0.0000000000000D+00
411  4.1000000000000D+00  0.0000000000000D+00  0.0000000000000D+00
412  4.1100000000000D+00  0.0000000000000D+00  0.0000000000000D+00
413  4.1200000000000D+00  0.0000000000000D+00  0.0000000000000D+00
414  4.1300000000000D+00  0.0000000000000D+00  0.0000000000000D+00
415  4.1400000000000D+00  0.0000000000000D+00  0.0000000000000D+00
416  4.1500000000000D+00  0.0000000000000D+00  0.0000000000000D+00
417  4.1600000000000D+00  0.0000000000000D+00  0.0000000000000D+00
418  4.1700000000000D+00  0.0000000000000D+00  0.0000000000000D+00
419  4.1800000000000D+00  0.0000000000000D+00  0.0000000000000D+00
420  4.1900000000000D+00  0.0000000000000D+00  0.0000000000000D+00
421  4.2000000000000D+00  0.0000000000000D+00  0.0000000000000D+00
422  4.2100000000000D+00  0.0000000000000D+00  0.0000000000000D+00
423  4.2200000000000D+00  0.0000000000000D+00  0.0000000000000D+00
424  4.2300000000000D+00  0.0000000000000D+00  0.0000000000000D+00
425  4.2400000000000D+00  0.0000000000000D+00  0.0000000000000D+00
426  4.2500000000000D+00  0.0000000000000D+00  0.0000000000000D+00
427  4.2600000000000D+00  0.0000000000000D+00  0.0000000000000D+00
428  4.2700000000000D+00  0.0000000000000D+00  0.0000000000000D+00
429  4.2800000000000D+00  0.0000000000000D+00  0.0000000000000D+00
430  4.2900000000000D+00  0.0000000000000D+00  0.0000000000000D+00
431  4.3000000000000D+00  0.0000000000000D+00  0.0000000000000D+00
432  4.3100000000000D+00  0.0000000000000D+00  0.0000000000000D+00
433  4.3200000000000D+00  0.0000000000000D+00  0.0000000000000D+00
434  4.3300000000000D+00  0.0000000000000D+00  0.0000000000000D+00
435  4.3400000000000D+00  0.0000000000000D+00  0.0000000000000D+00
436  4.3500000000000D+00  0.0000000000000D+00  0.0000000000000D+00
437  4.3600000000000D+00  0.0000000000000D+00  0.0000000000000D+00
438  4.3700000000000D+00  0.0000000000000D+00  0.0000000000000D+00
439  4.3800000000000D+00  0.0000000000000D+00  0.0000000000000D+00
440  4.3900000000000D+00  0.0000000000000D+00  0.0000000000000D+00
441  4.4000000000000D+00  0.0000000000000D+00  0.0000000000000D+00
442  4.4100000000000D+00  0.0000000000000D+00  0.0000000000000D+00
443  4.4200000000000D+00  0.0000000000000D+00  0.0000000000000D+00