<?xml version="1.0" encoding="UTF-8" ?>
<psml version="1.1" energy_unit="hartree" length_unit="bohr"
 uuid="933c40a0-44bc-11e8-63dd-e566abb71ab0"
 xmlns="http://esl.cecam.org/PSML/ns/1.1">
<provenance creator="ONCVPSP-3.3.0+psml-3.3.0-73 (fully-relativistic)"
 date="2018-04-20">
<annotation action="semilocal-pseudopotential-generation"
 action-cont="projectors-generation" />
<input-file name="oncvpsp-input">
<![CDATA[# atsym z nc nv iexc psfile
Cr 24 3 4 4 both
# n l f
1 0 2.0
2 0 2.0
2 1 6.0
3 0 2.0
3 1 6.0
3 2 5.0
4 0 1.0
# lmax
2
# l rc ep ncon nbas qcut
0 1.3 0.0 4 8 8.9
1 1.3 0.0 4 7 10.0
2 1.7 0.0 4 8 10.0
# lloc lpopt rc5 dvloc0
4 5 1.3 0.0
# l nproj debl
0 2 1.0
1 2 1.0
2 2 1.0
# icmod fcfact
3 5 1.32
# epsh1 epsh2 depsh
-18.0 12.0 0.02
# rlmax drl
6.0 0.01
 0
]]>
</input-file>
</provenance>
<pseudo-atom-spec atomic-label="Cr" atomic-number="24" z-pseudo="14"
 flavor="Hamann&apos;s oncvpsp" relativity="dirac" spin-dft="no"
 core-corrections="yes">
<annotation pseudo-energy="-86.0526494558" />
<exchange-correlation>
<annotation oncvpsp-xc-code="4" oncvpsp-xc-type="GGA -- Perdew-Burke-Ernzerhof" />
<libxc-info number-of-functionals="2">
<functional name="Perdew, Burke &amp; Ernzerhof (GGA)" type="exchange" id="101" />
<functional name="Perdew, Burke &amp; Ernzerhof (GGA)" type="correlation"
 id="130" />
</libxc-info>
</exchange-correlation>
<valence-configuration total-valence-charge="14">
<shell n="3" l="s" occupation="2" />
<shell n="3" l="p" occupation="6" />
<shell n="3" l="d" occupation="5" />
<shell n="4" l="s" occupation="1" />
</valence-configuration>
</pseudo-atom-spec>
<grid npts="457">
<annotation type="sampled from oncvpsp log grid"
 recipe="r(i:1..N) = r1*exp(a*(i-1)) + r=0; resampled"
 recipe-cont="r1: scale; a: step" scale="0.208333333333E-04"
 step="0.119285708653E-01" delta="0.500000000000E-02" rmax="44.0721796572" />
<grid-data>
  0.000000000000E+00  5.032624347497E-03  1.005227218795E-02  1.508001122169E-02
  2.031956831929E-02  2.548849629768E-02  3.084838375803E-02  3.602293359331E-02
  4.107378401246E-02  4.627749473396E-02  5.152220634232E-02  5.668113689579E-02
  6.235663237039E-02  6.778697285802E-02  7.281641866882E-02  7.821902357048E-02
  8.402247405418E-02  8.918627550078E-02  9.466743067541E-02  1.004854433080E-01
  1.066610157766E-01  1.118736391042E-01  1.173410081958E-01  1.230755727145E-01
  1.290903907501E-01  1.353991585533E-01  1.420162417235E-01  1.471904228460E-01
  1.525531186762E-01  1.581111975076E-01  1.638717778713E-01  1.698422376531E-01
  1.760302235427E-01  1.824436608270E-01  1.890907635409E-01  1.959800449871E-01
  2.031203286396E-01  2.105207594445E-01  2.156035726605E-01  2.208091053189E-01
  2.261403203577E-01  2.316002522524E-01  2.371920087428E-01  2.429187726019E-01
  2.487838034476E-01  2.547904395980E-01  2.609420999717E-01  2.672422860334E-01
  2.736945837874E-01  2.803026658183E-01  2.870702933818E-01  2.940013185453E-01
  3.010996863802E-01  3.083694372082E-01  3.158147089001E-01  3.234397392318E-01
  3.312488682958E-01  3.392465409720E-01  3.474373094572E-01  3.558258358567E-01
  3.644168948376E-01  3.732153763466E-01  3.822262883931E-01  3.914547599001E-01
  4.009060436231E-01  4.105855191403E-01  4.204986959145E-01  4.255446802654E-01
  4.306512164286E-01  4.358190310258E-01  4.410488593981E-01  4.463414457109E-01
  4.516975430594E-01  4.571179135761E-01  4.626033285390E-01  4.681545684815E-01
  4.737724233033E-01  4.794576923829E-01  4.852111846915E-01  4.910337189078E-01
  4.969261235347E-01  5.028892370171E-01  5.089239078613E-01  5.150309947556E-01
  5.212113666927E-01  5.274659030930E-01  5.337954939301E-01  5.402010398573E-01
  5.466834523356E-01  5.532436537636E-01  5.598825776088E-01  5.666011685401E-01
  5.734003825626E-01  5.802811871533E-01  5.872445613992E-01  5.942914961360E-01
  6.014229940896E-01  6.086400700187E-01  6.159437508589E-01  6.233350758692E-01
  6.308150967796E-01  6.383848779410E-01  6.460454964763E-01  6.537980424340E-01
  6.616436189432E-01  6.695833423705E-01  6.776183424790E-01  6.857497625887E-01
  6.939787597398E-01  7.023065048566E-01  7.107341829149E-01  7.192629931099E-01
  7.278941490272E-01  7.366288788155E-01  7.454684253613E-01  7.544140464657E-01
  7.634670150233E-01  7.726286192035E-01  7.819001626340E-01  7.912829645856E-01
  8.007783601606E-01  8.103877004825E-01  8.201123528883E-01  8.299537011230E-01
  8.399131455365E-01  8.499921032829E-01  8.601920085223E-01  8.705143126246E-01
  8.809604843761E-01  8.915320101886E-01  9.022303943108E-01  9.130571590426E-01
  9.240138449511E-01  9.351020110905E-01  9.463232352236E-01  9.576791140463E-01
  9.691712634148E-01  9.808013185758E-01  9.925709343987E-01  1.004481785611E+00
  1.016535567039E+00  1.028733993843E+00  1.041078801769E+00  1.053571747391E+00
  1.066214608359E+00  1.079009183660E+00  1.091957293864E+00  1.105060781390E+00
  1.118321510767E+00  1.131741368896E+00  1.145322265323E+00  1.159066132506E+00
  1.172974926096E+00  1.187050625210E+00  1.201295232712E+00  1.215710775505E+00
  1.230299304811E+00  1.245062896469E+00  1.260003651226E+00  1.275123695041E+00
  1.290425179381E+00  1.305910281534E+00  1.321581204912E+00  1.337440179371E+00
  1.353489461524E+00  1.369731335062E+00  1.386168111083E+00  1.402802128416E+00
  1.419635753957E+00  1.436671383004E+00  1.453911439600E+00  1.471358376875E+00
  1.489014677398E+00  1.506882853527E+00  1.524965447769E+00  1.543265033142E+00
  1.561784213540E+00  1.580525624102E+00  1.599491931592E+00  1.618685834771E+00
  1.638110064788E+00  1.657767385566E+00  1.677660594192E+00  1.697792521323E+00
  1.718166031578E+00  1.738784023957E+00  1.759649432245E+00  1.780765225432E+00
  1.802134408137E+00  1.823760021035E+00  1.845645141287E+00  1.867792882983E+00
  1.890206397578E+00  1.912888874349E+00  1.935843540841E+00  1.959073663332E+00
  1.982582547292E+00  2.006373537859E+00  2.030450020313E+00  2.054815420557E+00
  2.079473205604E+00  2.104426884071E+00  2.129680006680E+00  2.155236166760E+00
  2.181099000761E+00  2.207272188770E+00  2.233759455036E+00  2.260564568496E+00
  2.287691343318E+00  2.315143639438E+00  2.342925363111E+00  2.371040467468E+00
  2.399492953078E+00  2.428286868515E+00  2.457426310937E+00  2.486915426668E+00
  2.516758411788E+00  2.546959512730E+00  2.577523026883E+00  2.608453303205E+00
  2.639754742844E+00  2.671431799758E+00  2.703488981355E+00  2.735930849131E+00
  2.768762019321E+00  2.801987163552E+00  2.835611009515E+00  2.869638341629E+00
  2.904074001729E+00  2.938922889750E+00  2.974189964427E+00  3.009880244000E+00
  3.045998806928E+00  3.082550792611E+00  3.119541402122E+00  3.156975898948E+00
  3.194859609735E+00  3.233197925052E+00  3.271996300152E+00  3.311260255754E+00
  3.350995378823E+00  3.391207323369E+00  3.431901811250E+00  3.473084632985E+00
  3.514761648580E+00  3.556938788363E+00  3.599622053824E+00  3.642817518470E+00
  3.686531328691E+00  3.730769704636E+00  3.775538941091E+00  3.820845408384E+00
  3.866695553285E+00  3.913095899924E+00  3.960053050723E+00  4.007573687332E+00
  4.055664571580E+00  4.104332546439E+00  4.153584536996E+00  4.203427551440E+00
  4.253868682058E+00  4.304915106242E+00  4.356574087517E+00  4.408852976567E+00
  4.461759212286E+00  4.515300322834E+00  4.569483926708E+00  4.624317733828E+00
  4.679809546634E+00  4.735967261194E+00  4.792798868328E+00  4.850312454748E+00
  4.908516204205E+00  4.967418398655E+00  5.027027419439E+00  5.087351748472E+00
  5.148399969454E+00  5.210180769088E+00  5.272702938317E+00  5.335975373576E+00
  5.400007078059E+00  5.464807162996E+00  5.530384848952E+00  5.596749467139E+00
  5.663910460745E+00  5.731877386274E+00  5.800659914909E+00  5.870267833888E+00
  5.940711047895E+00  6.011999580470E+00  6.084143575435E+00  6.157153298341E+00
  6.231039137921E+00  6.305811607576E+00  6.381481346867E+00  6.458059123029E+00
  6.535555832505E+00  6.613982502495E+00  6.693350292525E+00  6.773670496036E+00
  6.854954541988E+00  6.937213996492E+00  7.020460564450E+00  7.104706091223E+00
  7.189962564318E+00  7.276242115090E+00  7.363557020471E+00  7.451919704716E+00
  7.541342741173E+00  7.631838854067E+00  7.723420920316E+00  7.816101971360E+00
  7.909895195016E+00  8.004813937356E+00  8.100871704605E+00  8.198082165060E+00
  8.296459151040E+00  8.396016660853E+00  8.496768860783E+00  8.598730087113E+00
  8.701914848158E+00  8.806337826336E+00  8.912013880252E+00  9.018958046815E+00
  9.127185543377E+00  9.236711769897E+00  9.347552311136E+00  9.459722938870E+00
  9.573239614136E+00  9.688118489506E+00  9.804375911380E+00  9.922028422316E+00
  1.004109276338E+01  1.016158587654E+01  1.028352490706E+01  1.040692720595E+01
  1.053181033242E+01  1.065819205641E+01  1.078609036109E+01  1.091552344542E+01
  1.104650972676E+01  1.117906784348E+01  1.131321665761E+01  1.144897525750E+01
  1.158636296059E+01  1.172539931611E+01  1.186610410791E+01  1.200849735720E+01
  1.215259932549E+01  1.229843051740E+01  1.244601168360E+01  1.259536382381E+01
  1.274650818969E+01  1.289946628797E+01  1.305425988342E+01  1.321091100203E+01
  1.336944193405E+01  1.352987523726E+01  1.369223374011E+01  1.385654054499E+01
  1.402281903153E+01  1.419109285991E+01  1.436138597422E+01  1.453372260591E+01
  1.470812727719E+01  1.488462480451E+01  1.506324030217E+01  1.524399918579E+01
  1.542692717602E+01  1.561205030213E+01  1.579939490576E+01  1.598898764463E+01
  1.618085549636E+01  1.637502576232E+01  1.657152607147E+01  1.677038438433E+01
  1.697162899694E+01  1.717528854490E+01  1.738139200744E+01  1.758996871153E+01
  1.780104833607E+01  1.801466091610E+01  1.823083684709E+01  1.844960688926E+01
  1.867100217193E+01  1.889505419799E+01  1.912179484837E+01  1.935125638655E+01
  1.958347146319E+01  1.981847312075E+01  2.005629479820E+01  2.029697033577E+01
  2.054053397980E+01  2.078702038756E+01  2.103646463221E+01  2.128890220780E+01
  2.154436903429E+01  2.180290146270E+01  2.206453628026E+01  2.232931071562E+01
  2.259726244421E+01  2.286842959354E+01  2.314285074866E+01  2.342056495764E+01
  2.370161173713E+01  2.398603107798E+01  2.427386345092E+01  2.456514981233E+01
  2.485993161007E+01  2.515825078940E+01  2.546014979887E+01  2.576567159645E+01
  2.607485965561E+01  2.638775797148E+01  2.670441106714E+01  2.702486399994E+01
  2.734916236794E+01  2.767735231636E+01  2.800948054415E+01  2.834559431068E+01
  2.868574144241E+01  2.902997033972E+01  2.937832998380E+01  2.973086994360E+01
  3.008764038293E+01  3.044869206752E+01  3.081407637233E+01  3.118384528880E+01
  3.155805143227E+01  3.193674804945E+01  3.231998902605E+01  3.270782889436E+01
  3.310032284109E+01  3.349752671518E+01  3.389949703577E+01  3.430629100020E+01
  3.471796649220E+01  3.513458209010E+01  3.555619707519E+01  3.598287144009E+01
  3.641466589737E+01  3.685164188814E+01  3.729386159079E+01  3.774138792988E+01
  3.819428458504E+01  3.865261600006E+01  3.911644739206E+01  3.958584476077E+01
  4.006087489790E+01  4.054160539667E+01  4.102810466143E+01  4.152044191737E+01
  4.201868722038E+01  4.252291146702E+01  4.303318640463E+01  4.354958464148E+01
  4.407217965718E+01
</grid-data>
</grid>
<valence-charge total-charge="14" is-unscreening-charge="yes"
 rescaled-to-z-pseudo="no">
<radfunc>
<data npts="457">
  4.546683329296E+00  4.550682716808E+00  4.562637124939E+00  4.582577550441E+00
  4.611828526025E+00  4.649137031493E+00  4.696662420817E+00  4.751050245430E+00
  4.812161510493E+00  4.883370523577E+00  4.963562172799E+00  5.050636686016E+00
  5.155747731573E+00  5.265380157707E+00  5.374750961678E+00  5.500544591600E+00
  5.645152906538E+00  5.781980413382E+00  5.935512351084E+00  6.107695178282E+00
  6.300676243684E+00  6.471615204478E+00  6.658684597031E+00  6.863292571026E+00
  7.086944935001E+00  7.331245924586E+00  7.597897204905E+00  7.813629941731E+00
  8.043733483521E+00  8.289023923708E+00  8.550339977227E+00  8.828539018600E+00
  9.124492023152E+00  9.439077227137E+00  9.773172299338E+00  1.012764479218E+01
  1.050334061496E+01  1.090107024603E+01  1.117884169139E+01  1.146695273184E+01
  1.176559465134E+01  1.207493868627E+01  1.239513250773E+01  1.272629635475E+01
  1.306851879732E+01  1.342185210908E+01  1.378630723099E+01  1.416184830932E+01
  1.454838679423E+01  1.494577508926E+01  1.535379974671E+01  1.577217421044E+01
  1.620053111549E+01  1.663841416294E+01  1.708526960042E+01  1.754043735164E+01
  1.800314185455E+01  1.847248268578E+01  1.894742507027E+01  1.942679039884E+01
  1.990924690307E+01  2.039330066686E+01  2.087728718605E+01  2.135936372262E+01
  2.183750273704E+01  2.230948672037E+01  2.277290478685E+01  2.300059496463E+01
  2.322515142562E+01  2.344621829009E+01  2.366342784587E+01  2.387640076529E+01
  2.408474638149E+01  2.428806302804E+01  2.448593844604E+01  2.467795026250E+01
  2.486366654416E+01  2.504264643036E+01  2.521444084897E+01  2.537859331869E+01
  2.553464084129E+01  2.568211488668E+01  2.582054247365E+01  2.594944734862E+01
  2.606835126428E+01  2.617677535948E+01  2.627424164112E+01  2.636027456821E+01
  2.643440273741E+01  2.649616066852E+01  2.654509068765E+01  2.658074490473E+01
  2.660268728075E+01  2.661049577949E+01  2.660376459675E+01  2.658210645932E+01
  2.654515498414E+01  2.649256708719E+01  2.642402543000E+01  2.633924089019E+01
  2.623795504134E+01  2.611994262565E+01  2.598501400190E+01  2.583301754957E+01
  2.566384200876E+01  2.547741873467E+01  2.527372384398E+01  2.505278022979E+01
  2.481465942117E+01  2.455948326268E+01  2.428742538915E+01  2.399871247091E+01
  2.369362520517E+01  2.337249902971E+01  2.303572453616E+01  2.268374756162E+01
  2.231706893893E+01  2.193624388820E+01  2.154188103490E+01  2.113464104241E+01
  2.071523485083E+01  2.028442151708E+01  1.984300565575E+01  1.939183448441E+01
  1.893179448181E+01  1.846380767229E+01  1.798882755457E+01  1.750783469850E+01
  1.702183203810E+01  1.653183989428E+01  1.603889076562E+01  1.554402392955E+01
  1.504827990096E+01  1.455269479824E+01  1.405829467007E+01  1.356608983840E+01
  1.307706931460E+01  1.259219534635E+01  1.211239815249E+01  1.163857090215E+01
  1.117156499194E+01  1.071218567217E+01  1.026118806884E+01  9.819273643381E+00
  9.387087126281E+00  8.965213954543E+00  8.554178235677E+00  8.154441253748E+00
  7.766400525176E+00  7.390389404233E+00  7.026677230385E+00  6.675470002146E+00
  6.336911554955E+00  6.011085214070E+00  5.698015887615E+00  5.397672559940E+00
  5.109971141439E+00  4.834777627949E+00  4.571911520981E+00  4.321149459235E+00
  4.082229012158E+00  3.854852587713E+00  3.638692118124E+00  3.433396637223E+00
  3.238601681381E+00  3.053932452192E+00  2.879006816802E+00  2.713438145585E+00
  2.556837969777E+00  2.408818437943E+00  2.268994563755E+00  2.136986258482E+00
  2.012420144467E+00  1.894931148515E+00  1.784163876724E+00  1.679773774903E+00
  1.581428081200E+00  1.488806580037E+00  1.401602168630E+00  1.319521249369E+00
  1.242283962874E+00  1.169624277575E+00  1.101289952045E+00  1.037042385907E+00
  9.766563738937E-01  9.199194493882E-01  8.666298787225E-01  8.165939366254E-01
  7.696259252543E-01  7.255481110386E-01  6.841906560554E-01  6.453915209598E-01
  6.089963424509E-01  5.748582881570E-01  5.428378917040E-01  5.128028706112E-01
  4.846279295300E-01  4.581945512031E-01  4.333907773833E-01  4.101109818068E-01
  3.882556371710E-01  3.677310779188E-01  3.484492604836E-01  3.303275225061E-01
  3.132883423861E-01  2.972591003931E-01  2.821718424243E-01  2.679630473645E-01
  2.545733988763E-01  2.419475623357E-01  2.300339675089E-01  2.187845974718E-01
  2.081547841736E-01  1.981030109638E-01  1.885907223224E-01  1.795821409673E-01
  1.710440924495E-01  1.629458372939E-01  1.552589106980E-01  1.479569697568E-01
  1.410156481502E-01  1.344124181933E-01  1.281264601282E-01  1.221385385078E-01
  1.164308855043E-01  1.109870909565E-01  1.057919989551E-01  1.008316107537E-01
  9.609299377995E-02  9.156419651692E-02  8.723416901443E-02  8.309268878908E-02
  7.913029186653E-02  7.533820872009E-02  7.170830485953E-02  6.823302582638E-02
  6.490534635516E-02  6.171872346449E-02  5.866705324775E-02  5.574463113929E-02
  5.294611543935E-02  5.026649388918E-02  4.770105309562E-02  4.524535061393E-02
  4.289518950611E-02  4.064659520180E-02  3.849579449763E-02  3.643919654062E-02
  3.447337565008E-02  3.259505584147E-02  3.080109692424E-02  2.908848205388E-02
  2.745430662622E-02  2.589576840913E-02  2.441015881374E-02  2.299485521314E-02
  2.164731422266E-02  2.036506586032E-02  1.914570851119E-02  1.798690462317E-02
  1.688637706563E-02  1.584190608566E-02  1.485132680014E-02  1.391252716298E-02
  1.302344635332E-02  1.218207352983E-02  1.138644690028E-02  1.063465305832E-02
  9.924826542187E-03  9.255149573004E-03  8.623851933269E-03  8.029210949389E-03
  7.469551545201E-03  6.943246336732E-03  6.448715741682E-03  5.984428080424E-03
  5.548899648472E-03  5.140694743538E-03  4.758425633311E-03  4.400752452934E-03
  4.066383023882E-03  3.754072588434E-03  3.462623456212E-03  3.190884561359E-03
  2.937750930730E-03  2.702163065123E-03  2.483106236916E-03  2.279609708672E-03
  2.090745878195E-03  1.915629356253E-03  1.753415983764E-03  1.603301795568E-03
  1.464521938143E-03  1.336349548677E-03  1.218094602824E-03  1.109102738296E-03
  1.008754061152E-03  9.164619412752E-04  8.316718030920E-04  7.538599171117E-04
  6.825321973267E-04  6.172230089872E-04  5.574939907063E-04  5.029328943138E-04
  4.531524453512E-04  4.077892266025E-04  3.665025865953E-04  3.289735745865E-04
  2.949039031751E-04  2.640149393595E-04  2.360467245827E-04  2.107570240838E-04
  1.879204056922E-04  1.673273480632E-04  1.487833782522E-04  1.321082384531E-04
  1.171350816852E-04  1.037096961837E-04  9.168975824182E-05  8.094411325119E-05
  7.135208468724E-05  6.280281079414E-05  5.519460872248E-05  4.843436587100E-05
  4.243695817373E-05  3.712469505745E-05  3.242679077053E-05  2.827886175316E-05
  2.462244968190E-05  2.140456977879E-05  1.857728392875E-05  1.609729809985E-05
  1.392558351039E-05  1.202702093643E-05  1.037006750485E-05  8.926445270383E-06
  7.670850832951E-06  6.580685213676E-06  5.635803175246E-06  4.818281145572E-06
  4.112202882882E-06  3.503462005911E-06  2.979580504587E-06  2.529542344492E-06
  2.143641282058E-06  1.813342016756E-06  1.531153820814E-06  1.290515805957E-06
  1.085693009724E-06  9.116825104480E-07  7.641288095987E-07  6.392477522668E-07
  5.337582903420E-07  4.448214283305E-07  3.699857292670E-07  3.071387943296E-07
  2.544641566577E-07  2.104029605347E-07  1.736214995348E-07  1.429763025722E-07
  1.174992909387E-07  9.636652287067E-08  7.887406197136E-08  6.442460463323E-08
  5.251355197655E-08  4.271551402216E-08  3.467263626476E-08  2.808453720391E-08
  2.269963388137E-08  1.830768192841E-08  1.473337553908E-08  1.183087004791E-08
  9.479105486791E-09  7.577823715060E-09  6.044184554010E-09  4.809897879504E-09
  3.818799976393E-09  3.024804015348E-09  1.249392294281E-09  9.732307203431E-10
  7.560311339531E-10  5.856754856488E-10  4.524330403232E-10  3.485119570242E-10
  2.676906189475E-10  2.050154117556E-10  1.565537005457E-10  1.191925214919E-10
  9.047501816889E-11  6.846794625692E-11  5.165467198971E-11  3.884902460822E-11
  2.912615374601E-11  2.176720903491E-11  1.621521888396E-11  1.204001380130E-11
  8.910430308102E-12  6.572356195518E-12  4.831446791538E-12  3.539563830959E-12
  2.584171016520E-12  1.880069890787E-12  1.362981718469E-12  9.845803847243E-13
  7.086617993631E-13  5.082002861468E-13  3.630947185201E-13  2.584490647770E-13
  1.832654608240E-13  1.294545379689E-13  9.108881585899E-14  6.384160967891E-14
  4.456698107461E-14  3.098650431767E-14  2.145660675878E-14  1.479644672027E-14
  1.016109117184E-14  6.948452642082E-15  4.731281054621E-15  3.207672830945E-15
  2.165207705644E-15  1.455071965704E-15  9.734681469723E-16  6.483179546404E-16
  4.297934255800E-16  2.836044204282E-16  1.862616877183E-16  1.217494158776E-16
  7.919873697203E-17  5.126872747088E-17  3.302511286176E-17  2.116741685387E-17
  1.349885781229E-17  8.564569537264E-18  5.405887142183E-18  3.394332764487E-18
  2.120022932305E-18  1.317036368440E-18  8.137632552099E-19  5.000497087299E-19
  3.055726149880E-19  1.856832979076E-19  1.121912710352E-19  6.739744247704E-20
  4.025277547525E-20  2.389933900532E-20  1.410531535496E-20  8.274759676103E-21
  4.824719764729E-21  2.795766776611E-21  1.609939380231E-21  9.212232974014E-22
  5.237622128800E-22  0.000000000000E+00  0.000000000000E+00  0.000000000000E+00
  0.000000000000E+00
</data>
</radfunc>
</valence-charge>
<pseudocore-charge matching-radius="0.473772423303"
 number-of-continuous-derivatives="4">
<annotation model-charge-form="Teter function with specified parameters" />
<radfunc>
<data npts="290">
  1.245358552613E+02  1.245103770467E+02  1.244342341210E+02  1.243072683426E+02
  1.241211186256E+02  1.238838619984E+02  1.235819091375E+02  1.232367350234E+02
  1.228493727339E+02  1.223986474490E+02  1.218918927326E+02  1.213426336009E+02
  1.206809722715E+02  1.199924432787E+02  1.193071749198E+02  1.185210009212E+02
  1.176198664471E+02  1.167697963545E+02  1.158189206866E+02  1.147562620651E+02
  1.135699092817E+02  1.125231625024E+02  1.113820381459E+02  1.101391673343E+02
  1.087868449108E+02  1.073170688550E+02  1.057215955188E+02  1.044374455547E+02
  1.030742810426E+02  1.016285268868E+02  1.000966461607E+02  9.847517894342E+01
  9.676078731497E+01  9.495030701879E+01  9.304080626667E+01  9.102965209920E+01
  8.891458462303E+01  8.669379931528E+01  8.515389666134E+01  8.356621739659E+01
  8.193068413674E+01  8.024737470230E+01  7.851653702532E+01  7.673860451544E+01
  7.491421178367E+01  7.304421059955E+01  7.112968593265E+01  6.917197190184E+01
  6.717266742660E+01  6.513365134364E+01  6.305709671898E+01  6.094548405200E+01
  5.880161303351E+01  5.662861248544E+01  5.442994807679E+01  5.220942737934E+01
  4.997120179958E+01  4.771976490099E+01  4.545994661581E+01  4.319690283938E+01
  4.093609990554E+01  3.868329346066E+01  3.644450128959E+01  3.422596970139E+01
  3.203413315930E+01  2.987556693995E+01  2.775693273387E+01  2.671468057492E+01
  2.568491725451E+01  2.466847134218E+01  2.366616410652E+01  2.267880705237E+01
  2.170719937718E+01  2.075212535453E+01  1.981435165410E+01  1.889462460828E+01
  1.799366743696E+01  1.711217744321E+01  1.625082319364E+01  1.541024169839E+01
  1.459103560693E+01  1.379377043696E+01  1.301897185454E+01  1.226712302481E+01
  1.153866205331E+01  1.083397953892E+01  1.015341625981E+01  9.497261014410E+00
  8.865748639850E+00  8.259058230089E+00  7.677311576212E+00  7.120571850816E+00
  6.588842557860E+00  6.082066768519E+00  5.600126662358E+00  5.142843391692E+00
  4.709977285208E+00  4.301228404764E+00  3.916237466872E+00  3.554587137530E+00
  3.215803706001E+00  2.899359139673E+00  2.604673518445E+00  2.331117843072E+00
  2.078017207706E+00  1.844654322432E+00  1.630273367082E+00  1.434084152916E+00
  1.255266564164E+00  1.092975246775E+00  9.463445072584E-01  8.144933802711E-01
  6.965308196412E-01  5.915609640018E-01  4.986884251687E-01  4.170235449651E-01
  3.456875644534E-01  2.838176485699E-01  2.305717090582E-01  1.851329694235E-01
  1.467142174448E-01  1.145616936236E-01  8.795856783034E-02  6.622796133852E-02
  4.873547737348E-02  3.489121019952E-02  2.415121053462E-02  1.601839360554E-02
  1.004288529105E-02  5.821811374856E-03  2.998544742731E-03  1.261435187648E-03
  3.420560899202E-04  1.301136288723E-05  8.535443679737E-05  4.056784362087E-04
  8.529428414865E-04  1.335106585798E-03  1.785640528902E-03  2.159993412131E-03
  2.432084629379E-03  2.590894399504E-03  2.637217214767E-03  2.580637856849E-03
  2.436780979094E-03  2.224875485740E-03  1.965663999874E-03  1.679675966631E-03
  1.385870801575E-03  1.100645416402E-03  8.371889020294E-04  6.051565860949E-04
  4.106265446831E-04  2.562943238902E-04  1.418564301378E-04  6.453030003080E-05
  1.965807131094E-05  1.343533145274E-06  3.075994449307E-06  1.830120320562E-05
  4.090748968942E-05  6.560450394153E-05  8.818171058358E-05  1.056435891916E-04
  1.162276606200E-04  1.193194525634E-04  1.152848452388E-04  1.052445326124E-04
  9.081737787071E-05  7.385918630259E-05  5.622099600546E-05  3.954670125669E-05
  2.512413048200E-05  1.379717060454E-05  5.939797826058E-06  1.486585000271E-06
  8.997418109219E-09  8.230389713404E-07  3.111883286555E-06  6.047135479511E-06
  8.894222676813E-06  1.109080395533E-05  1.229154963992E-05  1.237757553259E-05
  1.143359314520E-05  9.699849685517E-06  7.508690962746E-06  5.216774678449E-06
  3.143501580634E-06  1.524265260003E-06  4.840122517788E-07  3.288030580910E-08
  0.000000000000E+00  0.000000000000E+00  0.000000000000E+00  0.000000000000E+00
  0.000000000000E+00  0.000000000000E+00  0.000000000000E+00  0.000000000000E+00
  0.000000000000E+00  0.000000000000E+00  0.000000000000E+00  0.000000000000E+00
  0.000000000000E+00  0.000000000000E+00  0.000000000000E+00  0.000000000000E+00
  0.000000000000E+00  0.000000000000E+00  0.000000000000E+00  0.000000000000E+00
  0.000000000000E+00  0.000000000000E+00  0.000000000000E+00  0.000000000000E+00
  0.000000000000E+00  0.000000000000E+00  0.000000000000E+00  0.000000000000E+00
  0.000000000000E+00  0.000000000000E+00  0.000000000000E+00  0.000000000000E+00
  0.000000000000E+00  0.000000000000E+00  0.000000000000E+00  0.000000000000E+00
  0.000000000000E+00  0.000000000000E+00  0.000000000000E+00  0.000000000000E+00
  0.000000000000E+00  0.000000000000E+00  0.000000000000E+00  0.000000000000E+00
  0.000000000000E+00  0.000000000000E+00  0.000000000000E+00  0.000000000000E+00
  0.000000000000E+00  0.000000000000E+00  0.000000000000E+00  0.000000000000E+00
  0.000000000000E+00  0.000000000000E+00  0.000000000000E+00  0.000000000000E+00
  0.000000000000E+00  0.000000000000E+00  0.000000000000E+00  0.000000000000E+00
  0.000000000000E+00  0.000000000000E+00  0.000000000000E+00  0.000000000000E+00
  0.000000000000E+00  0.000000000000E+00  0.000000000000E+00  0.000000000000E+00
  0.000000000000E+00  0.000000000000E+00  0.000000000000E+00  0.000000000000E+00
  0.000000000000E+00  0.000000000000E+00  0.000000000000E+00  0.000000000000E+00
  0.000000000000E+00  0.000000000000E+00  0.000000000000E+00  0.000000000000E+00
  0.000000000000E+00  0.000000000000E+00  0.000000000000E+00  0.000000000000E+00
  0.000000000000E+00  0.000000000000E+00  0.000000000000E+00  0.000000000000E+00
  0.000000000000E+00  0.000000000000E+00  0.000000000000E+00  0.000000000000E+00
  0.000000000000E+00  0.000000000000E+00  0.000000000000E+00  0.000000000000E+00
  0.000000000000E+00  0.000000000000E+00
</data>
</radfunc>
</pseudocore-charge>
<semilocal-potentials set="scalar_relativistic">
<slps n="3" l="s" rc="1.30591028153">
<radfunc>
<data npts="290">
 -1.095647676340E+01 -1.095779434111E+01 -1.096169426661E+01 -1.096819311476E+01
 -1.097772313388E+01 -1.098987444924E+01 -1.100534764296E+01 -1.102304735362E+01
 -1.104292527588E+01 -1.106607455386E+01 -1.109212688337E+01 -1.112039459096E+01
 -1.115448865329E+01 -1.119001513551E+01 -1.122542172318E+01 -1.126610103024E+01
 -1.131280606285E+01 -1.135693974094E+01 -1.140639315889E+01 -1.146176733439E+01
 -1.152372003279E+01 -1.157849831075E+01 -1.163833895817E+01 -1.170366122434E+01
 -1.177490854554E+01 -1.185254751310E+01 -1.193706612713E+01 -1.200527411139E+01
 -1.207785624606E+01 -1.215503581124E+01 -1.223703839653E+01 -1.232409023911E+01
 -1.241641624407E+01 -1.251423765161E+01 -1.261776931474E+01 -1.272721654987E+01
 -1.284277152261E+01 -1.296460913079E+01 -1.304940115458E+01 -1.313709286000E+01
 -1.322771699307E+01 -1.332129938237E+01 -1.341785807256E+01 -1.351740239988E+01
 -1.361993200861E+01 -1.372543580753E+01 -1.383389086601E+01 -1.394526124960E+01
 -1.405949679532E+01 -1.417653182779E+01 -1.429628381723E+01 -1.441865198169E+01
 -1.454351583624E+01 -1.467073369267E+01 -1.480014111457E+01 -1.493154933363E+01
 -1.506474363444E+01 -1.519948171709E+01 -1.533549204923E+01 -1.547247222268E+01
 -1.561008733447E+01 -1.574796841892E+01 -1.588571096784E+01 -1.602287358985E+01
 -1.615897688069E+01 -1.629350260412E+01 -1.642589331969E+01 -1.649110317587E+01
 -1.655555263799E+01 -1.661916125332E+01 -1.668184633350E+01 -1.674352305592E+01
 -1.680410458999E+01 -1.686350225039E+01 -1.692162567934E+01 -1.697838305917E+01
 -1.703368135588E+01 -1.708742659319E+01 -1.713952415557E+01 -1.718987911685E+01
 -1.723839658979E+01 -1.728498208953E+01 -1.732954190253E+01 -1.737198345037E+01
 -1.741221563681E+01 -1.745014916515E+01 -1.748569681307E+01 -1.751877365280E+01
 -1.754929720621E+01 -1.757718752748E+01 -1.760236720967E+01 -1.762476131661E+01
 -1.764429724630E+01 -1.766090453759E+01 -1.767451463627E+01 -1.768506064050E+01
 -1.769247704761E+01 -1.769669952478E+01 -1.769766472461E+01 -1.769531016366E+01
 -1.768957417736E+01 -1.768039595954E+01 -1.766771568913E+01 -1.765147474075E+01
 -1.763161597142E+01 -1.760808407089E+01 -1.758082596027E+01 -1.754979122122E+01
 -1.751493253643E+01 -1.747620612137E+01 -1.743357212746E+01 -1.738699499675E+01
 -1.733644374988E+01 -1.728189219067E+01 -1.722331901350E+01 -1.716070780361E+01
 -1.709404692472E+01 -1.702332929436E+01 -1.694855205305E+01 -1.686971614006E+01
 -1.678682579411E+01 -1.669988800318E+01 -1.660891193162E+01 -1.651390835538E+01
 -1.641488913825E+01 -1.631186678119E+01 -1.620485407639E+01 -1.609386389517E+01
 -1.597890913655E+01 -1.586000286090E+01 -1.573715863044E+01 -1.561039107695E+01
 -1.547971671560E+01 -1.534515502306E+01 -1.520672979818E+01 -1.506447082289E+01
 -1.491841584107E+01 -1.476861287222E+01 -1.461512287491E+01 -1.445802277188E+01
 -1.429740884407E+01 -1.413340049352E+01 -1.396614436610E+01 -1.379581881267E+01
 -1.362263865252E+01 -1.344686018468E+01 -1.326878637153E+01 -1.308877209509E+01
 -1.290722935933E+01 -1.272463228277E+01 -1.254152169518E+01 -1.235850912133E+01
 -1.217627990563E+01 -1.199559520505E+01 -1.181729255813E+01 -1.164228472613E+01