<?xml version="1.0" encoding="UTF-8" ?>
<psml version="1.1" energy_unit="hartree" length_unit="bohr"
 uuid="5ef011c0-515d-11e8-6a30-6fdffff6576a"
 xmlns="http://esl.cecam.org/PSML/ns/1.1">
<provenance creator="ONCVPSP-3.3.0+psml-3.3.0-73 (fully-relativistic)"
 date="2018-05-06">
<annotation action="semilocal-pseudopotential-generation"
 action-cont="projectors-generation" />
<input-file name="oncvpsp-input">
<![CDATA[# atsym z nc nv iexc psfile
Cr 24 3 4 4 both
# n l f
1 0 2.0
2 0 2.0
2 1 6.0
3 0 2.0
3 1 6.0
3 2 5.0
4 0 1.0
# lmax
2
# l rc ep ncon nbas qcut
0 1.1 0.0 4 8 10.8
1 1.1 0.0 4 7 11.0
2 1.4 0.0 4 8 11.0
# lloc lpopt rc5 dvloc0
4 5 1.1 0.0
# l nproj debl
0 2 1.0
1 2 1.0
2 2 1.0
# icmod fcfact
3 4.5 1.6
# epsh1 epsh2 depsh
-18.0 12.0 0.02
# rlmax drl
6.0 0.01
 0
]]>
</input-file>
</provenance>
<pseudo-atom-spec atomic-label="Cr" atomic-number="24" z-pseudo="14"
 flavor="Hamann&apos;s oncvpsp" relativity="dirac" spin-dft="no"
 core-corrections="yes">
<annotation pseudo-energy="-86.5457755180" />
<exchange-correlation>
<annotation oncvpsp-xc-code="4" oncvpsp-xc-type="GGA -- Perdew-Burke-Ernzerhof" />
<libxc-info number-of-functionals="2">
<functional name="Perdew, Burke &amp; Ernzerhof (GGA)" type="exchange" id="101" />
<functional name="Perdew, Burke &amp; Ernzerhof (GGA)" type="correlation"
 id="130" />
</libxc-info>
</exchange-correlation>
<valence-configuration total-valence-charge="14">
<shell n="3" l="s" occupation="2" />
<shell n="3" l="p" occupation="6" />
<shell n="3" l="d" occupation="5" />
<shell n="4" l="s" occupation="1" />
</valence-configuration>
</pseudo-atom-spec>
<grid npts="457">
<annotation type="sampled from oncvpsp log grid"
 recipe="r(i:1..N) = r1*exp(a*(i-1)) + r=0; resampled"
 recipe-cont="r1: scale; a: step" scale="0.208333333333E-04"
 step="0.119285708653E-01" delta="0.500000000000E-02" rmax="44.0721796572" />
<grid-data>
  0.000000000000E+00  5.032624347497E-03  1.005227218795E-02  1.508001122169E-02
  2.031956831929E-02  2.548849629768E-02  3.084838375803E-02  3.602293359331E-02
  4.107378401246E-02  4.627749473396E-02  5.152220634232E-02  5.668113689579E-02
  6.235663237039E-02  6.778697285802E-02  7.281641866882E-02  7.821902357048E-02
  8.402247405418E-02  8.918627550078E-02  9.466743067541E-02  1.004854433080E-01
  1.066610157766E-01  1.118736391042E-01  1.173410081958E-01  1.230755727145E-01
  1.290903907501E-01  1.353991585533E-01  1.420162417235E-01  1.471904228460E-01
  1.525531186762E-01  1.581111975076E-01  1.638717778713E-01  1.698422376531E-01
  1.760302235427E-01  1.824436608270E-01  1.890907635409E-01  1.959800449871E-01
  2.031203286396E-01  2.105207594445E-01  2.156035726605E-01  2.208091053189E-01
  2.261403203577E-01  2.316002522524E-01  2.371920087428E-01  2.429187726019E-01
  2.487838034476E-01  2.547904395980E-01  2.609420999717E-01  2.672422860334E-01
  2.736945837874E-01  2.803026658183E-01  2.870702933818E-01  2.940013185453E-01
  3.010996863802E-01  3.083694372082E-01  3.158147089001E-01  3.234397392318E-01
  3.312488682958E-01  3.392465409720E-01  3.474373094572E-01  3.558258358567E-01
  3.644168948376E-01  3.732153763466E-01  3.822262883931E-01  3.914547599001E-01
  4.009060436231E-01  4.105855191403E-01  4.204986959145E-01  4.255446802654E-01
  4.306512164286E-01  4.358190310258E-01  4.410488593981E-01  4.463414457109E-01
  4.516975430594E-01  4.571179135761E-01  4.626033285390E-01  4.681545684815E-01
  4.737724233033E-01  4.794576923829E-01  4.852111846915E-01  4.910337189078E-01
  4.969261235347E-01  5.028892370171E-01  5.089239078613E-01  5.150309947556E-01
  5.212113666927E-01  5.274659030930E-01  5.337954939301E-01  5.402010398573E-01
  5.466834523356E-01  5.532436537636E-01  5.598825776088E-01  5.666011685401E-01
  5.734003825626E-01  5.802811871533E-01  5.872445613992E-01  5.942914961360E-01
  6.014229940896E-01  6.086400700187E-01  6.159437508589E-01  6.233350758692E-01
  6.308150967796E-01  6.383848779410E-01  6.460454964763E-01  6.537980424340E-01
  6.616436189432E-01  6.695833423705E-01  6.776183424790E-01  6.857497625887E-01
  6.939787597398E-01  7.023065048566E-01  7.107341829149E-01  7.192629931099E-01
  7.278941490272E-01  7.366288788155E-01  7.454684253613E-01  7.544140464657E-01
  7.634670150233E-01  7.726286192035E-01  7.819001626340E-01  7.912829645856E-01
  8.007783601606E-01  8.103877004825E-01  8.201123528883E-01  8.299537011230E-01
  8.399131455365E-01  8.499921032829E-01  8.601920085223E-01  8.705143126246E-01
  8.809604843761E-01  8.915320101886E-01  9.022303943108E-01  9.130571590426E-01
  9.240138449511E-01  9.351020110905E-01  9.463232352236E-01  9.576791140463E-01
  9.691712634148E-01  9.808013185758E-01  9.925709343987E-01  1.004481785611E+00
  1.016535567039E+00  1.028733993843E+00  1.041078801769E+00  1.053571747391E+00
  1.066214608359E+00  1.079009183660E+00  1.091957293864E+00  1.105060781390E+00
  1.118321510767E+00  1.131741368896E+00  1.145322265323E+00  1.159066132506E+00
  1.172974926096E+00  1.187050625210E+00  1.201295232712E+00  1.215710775505E+00
  1.230299304811E+00  1.245062896469E+00  1.260003651226E+00  1.275123695041E+00
  1.290425179381E+00  1.305910281534E+00  1.321581204912E+00  1.337440179371E+00
  1.353489461524E+00  1.369731335062E+00  1.386168111083E+00  1.402802128416E+00
  1.419635753957E+00  1.436671383004E+00  1.453911439600E+00  1.471358376875E+00
  1.489014677398E+00  1.506882853527E+00  1.524965447769E+00  1.543265033142E+00
  1.561784213540E+00  1.580525624102E+00  1.599491931592E+00  1.618685834771E+00
  1.638110064788E+00  1.657767385566E+00  1.677660594192E+00  1.697792521323E+00
  1.718166031578E+00  1.738784023957E+00  1.759649432245E+00  1.780765225432E+00
  1.802134408137E+00  1.823760021035E+00  1.845645141287E+00  1.867792882983E+00
  1.890206397578E+00  1.912888874349E+00  1.935843540841E+00  1.959073663332E+00
  1.982582547292E+00  2.006373537859E+00  2.030450020313E+00  2.054815420557E+00
  2.079473205604E+00  2.104426884071E+00  2.129680006680E+00  2.155236166760E+00
  2.181099000761E+00  2.207272188770E+00  2.233759455036E+00  2.260564568496E+00
  2.287691343318E+00  2.315143639438E+00  2.342925363111E+00  2.371040467468E+00
  2.399492953078E+00  2.428286868515E+00  2.457426310937E+00  2.486915426668E+00
  2.516758411788E+00  2.546959512730E+00  2.577523026883E+00  2.608453303205E+00
  2.639754742844E+00  2.671431799758E+00  2.703488981355E+00  2.735930849131E+00
  2.768762019321E+00  2.801987163552E+00  2.835611009515E+00  2.869638341629E+00
  2.904074001729E+00  2.938922889750E+00  2.974189964427E+00  3.009880244000E+00
  3.045998806928E+00  3.082550792611E+00  3.119541402122E+00  3.156975898948E+00
  3.194859609735E+00  3.233197925052E+00  3.271996300152E+00  3.311260255754E+00
  3.350995378823E+00  3.391207323369E+00  3.431901811250E+00  3.473084632985E+00
  3.514761648580E+00  3.556938788363E+00  3.599622053824E+00  3.642817518470E+00
  3.686531328691E+00  3.730769704636E+00  3.775538941091E+00  3.820845408384E+00
  3.866695553285E+00  3.913095899924E+00  3.960053050723E+00  4.007573687332E+00
  4.055664571580E+00  4.104332546439E+00  4.153584536996E+00  4.203427551440E+00
  4.253868682058E+00  4.304915106242E+00  4.356574087517E+00  4.408852976567E+00
  4.461759212286E+00  4.515300322834E+00  4.569483926708E+00  4.624317733828E+00
  4.679809546634E+00  4.735967261194E+00  4.792798868328E+00  4.850312454748E+00
  4.908516204205E+00  4.967418398655E+00  5.027027419439E+00  5.087351748472E+00
  5.148399969454E+00  5.210180769088E+00  5.272702938317E+00  5.335975373576E+00
  5.400007078059E+00  5.464807162996E+00  5.530384848952E+00  5.596749467139E+00
  5.663910460745E+00  5.731877386274E+00  5.800659914909E+00  5.870267833888E+00
  5.940711047895E+00  6.011999580470E+00  6.084143575435E+00  6.157153298341E+00
  6.231039137921E+00  6.305811607576E+00  6.381481346867E+00  6.458059123029E+00
  6.535555832505E+00  6.613982502495E+00  6.693350292525E+00  6.773670496036E+00
  6.854954541988E+00  6.937213996492E+00  7.020460564450E+00  7.104706091223E+00
  7.189962564318E+00  7.276242115090E+00  7.363557020471E+00  7.451919704716E+00
  7.541342741173E+00  7.631838854067E+00  7.723420920316E+00  7.816101971360E+00
  7.909895195016E+00  8.004813937356E+00  8.100871704605E+00  8.198082165060E+00
  8.296459151040E+00  8.396016660853E+00  8.496768860783E+00  8.598730087113E+00
  8.701914848158E+00  8.806337826336E+00  8.912013880252E+00  9.018958046815E+00
  9.127185543377E+00  9.236711769897E+00  9.347552311136E+00  9.459722938870E+00
  9.573239614136E+00  9.688118489506E+00  9.804375911380E+00  9.922028422316E+00
  1.004109276338E+01  1.016158587654E+01  1.028352490706E+01  1.040692720595E+01
  1.053181033242E+01  1.065819205641E+01  1.078609036109E+01  1.091552344542E+01
  1.104650972676E+01  1.117906784348E+01  1.131321665761E+01  1.144897525750E+01
  1.158636296059E+01  1.172539931611E+01  1.186610410791E+01  1.200849735720E+01
  1.215259932549E+01  1.229843051740E+01  1.244601168360E+01  1.259536382381E+01
  1.274650818969E+01  1.289946628797E+01  1.305425988342E+01  1.321091100203E+01
  1.336944193405E+01  1.352987523726E+01  1.369223374011E+01  1.385654054499E+01
  1.402281903153E+01  1.419109285991E+01  1.436138597422E+01  1.453372260591E+01
  1.470812727719E+01  1.488462480451E+01  1.506324030217E+01  1.524399918579E+01
  1.542692717602E+01  1.561205030213E+01  1.579939490576E+01  1.598898764463E+01
  1.618085549636E+01  1.637502576232E+01  1.657152607147E+01  1.677038438433E+01
  1.697162899694E+01  1.717528854490E+01  1.738139200744E+01  1.758996871153E+01
  1.780104833607E+01  1.801466091610E+01  1.823083684709E+01  1.844960688926E+01
  1.867100217193E+01  1.889505419799E+01  1.912179484837E+01  1.935125638655E+01
  1.958347146319E+01  1.981847312075E+01  2.005629479820E+01  2.029697033577E+01
  2.054053397980E+01  2.078702038756E+01  2.103646463221E+01  2.128890220780E+01
  2.154436903429E+01  2.180290146270E+01  2.206453628026E+01  2.232931071562E+01
  2.259726244421E+01  2.286842959354E+01  2.314285074866E+01  2.342056495764E+01
  2.370161173713E+01  2.398603107798E+01  2.427386345092E+01  2.456514981233E+01
  2.485993161007E+01  2.515825078940E+01  2.546014979887E+01  2.576567159645E+01
  2.607485965561E+01  2.638775797148E+01  2.670441106714E+01  2.702486399994E+01
  2.734916236794E+01  2.767735231636E+01  2.800948054415E+01  2.834559431068E+01
  2.868574144241E+01  2.902997033972E+01  2.937832998380E+01  2.973086994360E+01
  3.008764038293E+01  3.044869206752E+01  3.081407637233E+01  3.118384528880E+01
  3.155805143227E+01  3.193674804945E+01  3.231998902605E+01  3.270782889436E+01
  3.310032284109E+01  3.349752671518E+01  3.389949703577E+01  3.430629100020E+01
  3.471796649220E+01  3.513458209010E+01  3.555619707519E+01  3.598287144009E+01
  3.641466589737E+01  3.685164188814E+01  3.729386159079E+01  3.774138792988E+01
  3.819428458504E+01  3.865261600006E+01  3.911644739206E+01  3.958584476077E+01
  4.006087489790E+01  4.054160539667E+01  4.102810466143E+01  4.152044191737E+01
  4.201868722038E+01  4.252291146702E+01  4.303318640463E+01  4.354958464148E+01
  4.407217965718E+01
</grid-data>
</grid>
<valence-charge total-charge="14" is-unscreening-charge="yes"
 rescaled-to-z-pseudo="no">
<radfunc>
<data npts="457">
  6.681485099565E-01  6.717780989024E-01  6.826308545737E-01  7.007459635706E-01
  7.273471142483E-01  7.613237366597E-01  8.046824254516E-01  8.544084289254E-01
  9.104169772709E-01  9.758604833316E-01  1.049791163730E+00  1.130344660997E+00
  1.227967373726E+00  1.330234667301E+00  1.432709275197E+00  1.551126412557E+00
  1.687985618771E+00  1.818197138855E+00  1.965130294682E+00  2.130944935721E+00
  2.318077813813E+00  2.484967578767E+00  2.668815551765E+00  2.871338412998E+00
  3.094418399052E+00  3.340115508913E+00  3.610679163622E+00  3.831386222149E+00
  4.068564085817E+00  4.323390029748E+00  4.597109308479E+00  4.891034774250E+00
  5.206545209876E+00  5.545082033646E+00  5.908143970351E+00  6.297279212020E+00
  6.714074514745E+00  7.160140595330E+00  7.474577868369E+00  7.803217939952E+00
  8.146528376390E+00  8.504964761739E+00  8.878965613033E+00  9.268946585953E+00
  9.675293910608E+00  1.009835699756E+01  1.053844015608E+01  1.099579337035E+01
  1.147060208509E+01  1.196297596069E+01  1.247293656958E+01  1.300040402037E+01
  1.354518251621E+01  1.410694487726E+01  1.468521608662E+01  1.527935595398E+01
  1.588854103223E+01  1.651174596974E+01  1.714772453544E+01  1.779499061427E+01
  1.845179953800E+01  1.911613018894E+01  1.978566839123E+01  2.045779218469E+01
  2.112955965650E+01  2.179770008461E+01  2.245860921885E+01  2.278513448086E+01
  2.310834958718E+01  2.342771131288E+01  2.374265676045E+01  2.405260394878E+01
  2.435695253246E+01  2.465508465847E+01  2.494636596696E+01  2.523014674254E+01
  2.550576322172E+01  2.577253906175E+01  2.602978697526E+01  2.627681053420E+01
  2.651290614564E+01  2.673736520085E+01  2.694947639777E+01  2.714852823575E+01
  2.733381167965E+01  2.750462298904E+01  2.766026670628E+01  2.780005879542E+01
  2.792332992190E+01  2.802942886092E+01  2.811772602028E+01  2.818761706106E+01
  2.823852659758E+01  2.826991195553E+01  2.828126696510E+01  2.827212576368E+01
  2.824206658056E+01  2.819071547423E+01  2.811774999077E+01  2.802290271043E+01
  2.790596464803E+01  2.776678847152E+01  2.760529150262E+01  2.742145846249E+01
  2.721534392589E+01  2.698707444723E+01  2.673685032307E+01  2.646494695683E+01
  2.617171579340E+01  2.585758479373E+01  2.552305842238E+01  2.516871712468E+01
  2.479521627373E+01  2.440328457254E+01  2.399372190111E+01  2.356739660391E+01
  2.312524221896E+01  2.266825365579E+01  2.219748283591E+01  2.171403381599E+01
  2.121905742039E+01  2.071374541644E+01  2.019932427205E+01  1.967704854155E+01
  1.914819393169E+01  1.861405010457E+01  1.807591327989E+01  1.753507870247E+01
  1.699283304480E+01  1.645044681701E+01  1.590916685827E+01  1.537020898481E+01
  1.483475086909E+01  1.430392522408E+01  1.377881336415E+01  1.326043921086E+01
  1.274976380814E+01  1.224768040598E+01  1.175501016620E+01  1.127249853685E+01
  1.080081233470E+01  1.034053756735E+01  9.892178018012E+00  9.456154607382E+00
  9.032805538291E+00  8.622387219789E+00  8.225075958646E+00  7.840970397671E+00
  7.470096081557E+00  7.112416599443E+00  6.767848603334E+00  6.436267917277E+00
  6.117511178665E+00  5.811380968613E+00  5.517649711739E+00  5.236063738618E+00
  4.966347273825E+00  4.708206335187E+00  4.461332513981E+00  4.225406604429E+00
  4.000102051399E+00  3.785088184074E+00  3.580033202924E+00  3.384606887113E+00
  3.198482989871E+00  3.021341290489E+00  2.852869273778E+00  2.692763411135E+00
  2.540729526763E+00  2.396478145577E+00  2.259719927309E+00  2.130166267436E+00
  2.007530267626E+00  1.891527627139E+00  1.781877456534E+00  1.678303015381E+00
  1.580532375955E+00  1.488299015204E+00  1.401342337458E+00  1.319408130603E+00
  1.242248958573E+00  1.169624493187E+00  1.101301788433E+00  1.037055500423E+00
  9.766680562752E-01  9.199297752190E-01  8.666389452343E-01  8.166018585254E-01
  7.696328090927E-01  7.255540556256E-01  6.841957528713E-01  6.453958545551E-01
  6.089999908377E-01  5.748613231886E-01  5.428403794429E-01  5.128048716852E-01
  4.846294994752E-01  4.581957407931E-01  4.333916329453E-01  4.101115455239E-01
  3.882559473704E-01  3.677311693461E-01  3.484491645639E-01  3.303272675909E-01
  3.132879539864E-01  2.972586014006E-01  2.821712533188E-01  2.679623864087E-01
  2.545726822997E-01  2.419468045051E-01  2.300331810891E-01  2.187837935749E-01
  2.081539724981E-01  1.981021999236E-01  1.885899191670E-01  1.795813518927E-01
  1.710433227004E-01  1.629450912589E-01  1.552581919963E-01  1.479562813189E-01
  1.410149922910E-01  1.344117966798E-01  1.281258742412E-01  1.221379890982E-01
  1.164303730447E-01  1.109866155876E-01  1.057915605287E-01  1.008312088712E-01
  9.609262782719E-02  9.156386569590E-02  8.723387237191E-02  8.309242524226E-02
  7.913006022623E-02  7.533800771150E-02  7.170813314081E-02  6.823288200527E-02
  6.490522900378E-02  6.171863113249E-02  5.866698447396E-02  5.574458446196E-02
  5.294608940523E-02  5.026648706136E-02  4.770106406045E-02  4.524537798690E-02
  4.289523193699E-02  4.064665137891E-02  3.849586315150E-02  3.643927644697E-02
  3.447346563226E-02  3.259515477233E-02  3.080120372761E-02  2.908859570559E-02
  2.745442615471E-02  2.589589289580E-02  2.441028739289E-02  2.299498707173E-02
  2.164744859975E-02  2.036520204633E-02  1.914584584695E-02  1.798704249880E-02
  1.688651491930E-02  1.584204340212E-02  1.485146310928E-02  1.391266203817E-02
  1.302357940974E-02  1.218220442272E-02  1.138657532313E-02  1.063477874105E-02
  9.924949249256E-03  9.255269101560E-03  8.623968111267E-03  8.029323633725E-03
  7.469660619866E-03  6.943351710986E-03  6.448817348269E-03  5.984525873822E-03
  5.548993603188E-03  5.140784852461E-03  4.758511906114E-03  4.400834914533E-03
  4.066461712969E-03  3.754147556058E-03  3.462694764440E-03  3.190952281997E-03
  2.937815144114E-03  2.702223858976E-03  2.483163705277E-03  2.279663950889E-03
  2.090796997984E-03  1.915677460823E-03  1.753461183006E-03  1.603344201300E-03
  1.464561663423E-03  1.336386707169E-03  1.218129308216E-03  1.109135103777E-03
  1.008784198936E-03  9.164899621713E-04  8.316978161272E-04  7.538840291902E-04
  6.825545129341E-04  6.172436299321E-04  5.575130158992E-04  5.029504195802E-04
  4.531685632769E-04  4.078040264092E-04  3.665161540441E-04  3.289859919083E-04
  2.949152490245E-04  2.640252887917E-04  2.360561490506E-04  2.107655914544E-04
  1.879281802799E-04  1.673343906786E-04  1.487897462646E-04  1.321139858661E-04
  1.171402592219E-04  1.037143513823E-04  9.169393555909E-05  8.094785417177E-05
  7.135542783927E-05  6.280579206859E-05  5.519726139569E-05  4.843672072918E-05
  4.243904363853E-05  3.712653731162E-05  3.242841388293E-05  2.828028780238E-05
  2.462369887770E-05  2.140566058094E-05  1.857823316270E-05  1.609812106872E-05
  1.392629410301E-05  1.202763173114E-05  1.037058986875E-05  8.926889453890E-06
  7.671226059631E-06  6.580999765149E-06  5.636064471236E-06  4.818495819098E-06
  4.112376850653E-06  3.503600534011E-06  2.979688269577E-06  2.529623490066E-06
  2.143699471420E-06  1.813380480896E-06  1.531175402861E-06  1.290523001832E-06
  1.085688005270E-06  9.116672152638E-07  7.641048877714E-07  6.392166502185E-07
  5.337212619876E-07  4.447795577464E-07  3.699399510654E-07  3.070899119164E-07
  2.544128584121E-07  2.103498353911E-07  1.735669638080E-07  1.429210729191E-07
  7.236059879397E-08  5.894246183718E-08  4.790377395781E-08  3.884330713167E-08
  3.142370445696E-08  2.536196704723E-08  2.042125057649E-08  1.640381569845E-08
  1.314497279194E-08  1.050789437530E-08  8.379182524534E-09  6.665091400489E-09
  5.288316597946E-09  4.185273537219E-09  3.303796593091E-09  2.601199165572E-09
  2.042642510888E-09  1.599767938338E-09  1.249553006471E-09  9.733576861390E-10
  7.561311610611E-10  5.857540686520E-10  4.524946013902E-10  3.485600450249E-10
  2.677280736728E-10  2.050444989512E-10  1.565762226127E-10  1.192099079612E-10
  9.048839941897E-11  6.847821339208E-11  5.166252532458E-11  3.885501280305E-11
  2.913070529473E-11  2.177065751891E-11  1.621782316011E-11  1.204197408748E-11
  8.911900957488E-12  6.573455807369E-12  4.832266186736E-12  3.540172321828E-12
  2.584621318692E-12  1.880401957837E-12  1.363225725027E-12  9.847590388942E-13
  7.087921287901E-13  5.082950125336E-13  3.631633115303E-13  2.584985471085E-13
  1.833010208936E-13  1.294799944112E-13  9.110696832882E-14  6.385450275810E-14
  4.457610202787E-14  3.099293069098E-14  2.146111609934E-14  1.479959780768E-14
  1.016328391060E-14  6.949972037440E-15  4.732329366042E-15  3.208392981581E-15
  2.165700252443E-15  1.455407347982E-15  9.736954882152E-16  6.484713593271E-16
  4.298964636671E-16  2.836733065757E-16  1.863075247890E-16  1.217797707392E-16
  7.921874210301E-17  5.128184739326E-17  3.303367480853E-17  2.117297640271E-17
  1.350244956361E-17  8.566878125563E-18  5.407363303727E-18  3.395271712662E-18
  2.120617008937E-18  1.317410228332E-18  8.139972536438E-19  5.001953640890E-19
  3.056627764321E-19  1.857387946138E-19  1.122252363971E-19  6.741811047234E-20
  4.026527874344E-20  2.390685837567E-20  1.410981047628E-20  8.277430666173E-21
  4.826297167315E-21  2.796692583367E-21  1.610479354840E-21  9.215362428888E-22
  5.239424206457E-22  0.000000000000E+00  0.000000000000E+00  0.000000000000E+00
  0.000000000000E+00
</data>
</radfunc>
</valence-charge>
<pseudocore-charge matching-radius="0.468154568481"
 number-of-continuous-derivatives="4">
<annotation model-charge-form="Teter function with specified parameters" />
<radfunc>
<data npts="290">
  1.211274322909E+02  1.211101580638E+02  1.210585271900E+02  1.209724144984E+02
  1.208461160335E+02  1.206850647313E+02  1.204799705852E+02  1.202453451788E+02
  1.199818209752E+02  1.196748936007E+02  1.193294288339E+02  1.189545271411E+02
  1.185022638123E+02  1.180308873822E+02  1.175609797664E+02  1.170209327345E+02
  1.164006619870E+02  1.158143007534E+02  1.151569657922E+02  1.144205369833E+02
  1.135960913919E+02  1.128666266314E+02  1.120691867361E+02  1.111979925408E+02
  1.102468898743E+02  1.092093508890E+02  1.080784824556E+02  1.071647400280E+02
  1.061912585295E+02  1.051547711054E+02  1.040519308041E+02  1.028793257516E+02
  1.016334978505E+02  1.003109654536E+02  9.890825049003E+01  9.742191053852E+01
  9.584857635942E+01  9.418499539431E+01  9.302427188039E+01  9.182120087923E+01
  9.057497299435E+01  8.928484009217E+01  8.795012493545E+01  8.657023150723E+01
  8.514465602882E+01  8.367299866758E+01  8.215497592069E+01  8.059043365036E+01
  7.897936073300E+01  7.732190327042E+01  7.561837929437E+01  7.386929387735E+01
  7.207535454139E+01  7.023748683357E+01  6.835684991215E+01  6.643485195910E+01
  6.447316520628E+01  6.247374033091E+01  6.043881994377E+01  5.837095086043E+01
  5.627299481193E+01  5.414813721868E+01  5.199989361962E+01  4.983211332022E+01
  4.764897979818E+01  4.545500738696E+01  4.325503374614E+01  4.215439373614E+01
  4.105420762658E+01  3.995516476235E+01  3.885797144856E+01  3.776335009068E+01
  3.667203823706E+01  3.558478752102E+01  3.450236250020E+01  3.342553939142E+01
  3.235510469926E+01  3.129185373754E+01  3.023658904310E+01  2.919011868194E+01
  2.815325444847E+01  2.712680995921E+01  2.611159864315E+01  2.510843163166E+01
  2.411811555179E+01  2.314145022760E+01  2.217922629534E+01  2.123222273899E+01
  2.030120435388E+01  1.938691914736E+01  1.849009568617E+01  1.761144040177E+01
  1.675163486558E+01  1.591133304761E+01  1.509115857287E+01  1.429170199107E+01
  1.351351807624E+01  1.275712317403E+01  1.202299261510E+01  1.131155821419E+01
  1.062320587510E+01  9.958273322356E+00  9.317047980939E+00  8.699765025814E+00
  8.106605622970E+00  7.537695383767E+00  6.993103054007E+00  6.472839458620E+00
  5.976856722034E+00  5.505047783203E+00  5.057246222853E+00  4.633226418836E+00
  4.232704043395E+00  3.855336913854E+00  3.500726205538E+00  3.168418032745E+00
  2.857905400308E+00  2.568630524697E+00  2.299987519750E+00  2.051325438080E+00
  1.821951654893E+00  1.611135576568E+00  1.418112651843E+00  1.242088658887E+00
  1.082244237106E+00  9.377396281083E-01  8.077195861155E-01  6.913184142365E-01
  5.876650795098E-01  4.958883566191E-01  4.151219477336E-01  3.445095241438E-01
  2.832096343210E-01  2.304004228240E-01  1.852841051611E-01  1.470911453551E-01
  1.150840855975E-01  8.856098102169E-02  6.685839729359E-02  4.935393437027E-02
  3.546824636839E-02  2.466653493810E-02  1.645950174064E-02  1.040375444615E-02
  6.101669936243E-03  3.200727922391E-03  1.392337761756E-03  4.101906343840E-04
  2.817819243310E-05  5.792705060217E-05  3.460058046000E-04  7.708673986768E-04
  1.239594389903E-03  1.684517780657E-03  2.059781454462E-03  2.337923744334E-03
  2.506545233541E-03  2.565127545731E-03  2.522061702488E-03  2.391936760362E-03
  2.193130106062E-03  1.945730274949E-03  1.669811812295E-03  1.384069917011E-03
  1.104810827990E-03  8.452825871352E-04  6.153203927380E-04  4.212716715096E-04
  2.661586313002E-04  1.500307252723E-04  7.045638974247E-05  2.310273372715E-05
  2.353561565148E-06  1.920078585504E-06  1.540461652449E-05  3.678535654923E-05
  6.079885958893E-05  8.320669690999E-05  1.009420250992E-04  1.121409781860E-04
  1.160716976381E-04  1.129802036091E-04  1.038767539705E-04  9.028860921889E-05
  7.400515327375E-05  5.683921835659E-05  4.042450215074E-05  2.606357332877E-05
  1.463468005271E-05  6.559018347921E-06  1.823911473017E-06  5.208105468323E-08
  6.033365861692E-07  2.692899675771E-06  5.510351669362E-06  8.324779954940E-06
  1.056483017462E-05  1.186660713414E-05  1.208714303826E-05  1.128585020417E-05
  9.680401889424E-06  7.586344510877E-06  5.351109036097E-06  3.292843040409E-06
  1.652742515507E-06  5.666537815850E-07  5.813776762321E-08  0.000000000000E+00
  0.000000000000E+00  0.000000000000E+00  0.000000000000E+00  0.000000000000E+00
  0.000000000000E+00  0.000000000000E+00  0.000000000000E+00  0.000000000000E+00
  0.000000000000E+00  0.000000000000E+00  0.000000000000E+00  0.000000000000E+00
  0.000000000000E+00  0.000000000000E+00  0.000000000000E+00  0.000000000000E+00
  0.000000000000E+00  0.000000000000E+00  0.000000000000E+00  0.000000000000E+00
  0.000000000000E+00  0.000000000000E+00  0.000000000000E+00  0.000000000000E+00
  0.000000000000E+00  0.000000000000E+00  0.000000000000E+00  0.000000000000E+00
  0.000000000000E+00  0.000000000000E+00  0.000000000000E+00  0.000000000000E+00
  0.000000000000E+00  0.000000000000E+00  0.000000000000E+00  0.000000000000E+00
  0.000000000000E+00  0.000000000000E+00  0.000000000000E+00  0.000000000000E+00
  0.000000000000E+00  0.000000000000E+00  0.000000000000E+00  0.000000000000E+00
  0.000000000000E+00  0.000000000000E+00  0.000000000000E+00  0.000000000000E+00
  0.000000000000E+00  0.000000000000E+00  0.000000000000E+00  0.000000000000E+00
  0.000000000000E+00  0.000000000000E+00  0.000000000000E+00  0.000000000000E+00
  0.000000000000E+00  0.000000000000E+00  0.000000000000E+00  0.000000000000E+00
  0.000000000000E+00  0.000000000000E+00  0.000000000000E+00  0.000000000000E+00
  0.000000000000E+00  0.000000000000E+00  0.000000000000E+00  0.000000000000E+00
  0.000000000000E+00  0.000000000000E+00  0.000000000000E+00  0.000000000000E+00
  0.000000000000E+00  0.000000000000E+00  0.000000000000E+00  0.000000000000E+00
  0.000000000000E+00  0.000000000000E+00  0.000000000000E+00  0.000000000000E+00
  0.000000000000E+00  0.000000000000E+00
</data>
</radfunc>
</pseudocore-charge>
<semilocal-potentials set="scalar_relativistic">
<slps n="3" l="s" rc="1.10506078139">
<radfunc>
<data npts="290">
  3.076558140235E+01  3.073660549493E+01  3.065089994801E+01  3.050850990873E+01
  3.030069398010E+01  3.003740835586E+01  2.970486139458E+01  2.932814125518E+01
  2.890966635140E+01  2.842835410585E+01  2.789428801576E+01  2.732371280023E+01
  2.664755208914E+01  2.595657427489E+01  2.528132093232E+01  2.452150207886E+01
  2.366951141868E+01  2.288373237976E+01  2.202469041128E+01  2.108865406824E+01
  2.007239580771E+01  1.919988658387E+01  1.827346451094E+01  1.729262231538E+01
  1.625732790378E+01  1.516808406846E+01  1.402598359376E+01  1.313573706616E+01
  1.221769663276E+01  1.127306132984E+01  1.030325489349E+01  9.309926925352E+00
  8.294951005813E+00  7.260419596600E+00  6.208635657412E+00  5.142100993719E+00
  4.063501452863E+00  2.975689188209E+00  2.246838042351E+00  1.516142088304E+00
  7.845423519332E-01  5.299781385414E-02 -6.775179596645E-01 -1.406020232686E+00
 -2.131516525623E+00 -2.853010014300E+00 -3.569502865627E+00 -4.279999474726E+00
 -4.983509570295E+00 -5.679051157625E+00 -6.365653271952E+00 -7.042358518595E+00
 -7.708225380734E+00 -8.362330280327E+00 -9.003769382867E+00 -9.631660141893E+00
 -1.024514258479E+01 -1.084338034676E+01 -1.142556146559E+01 -1.199089895485E+01
 -1.253863117842E+01 -1.306802205403E+01 -1.357836111741E+01 -1.406896348272E+01
 -1.453916973796E+01 -1.498834581618E+01 -1.541588288547E+01 -1.562135341821E+01
 -1.582119730097E+01 -1.601534552296E+01 -1.620373066260E+01 -1.638628689804E+01
 -1.656295002098E+01 -1.673365745404E+01 -1.689834827198E+01 -1.705696322688E+01
 -1.720944477780E+01 -1.735573712480E+01 -1.749578624780E+01 -1.762953995021E+01
 -1.775694790761E+01 -1.787796172153E+01 -1.799253497830E+01 -1.810062331320E+01
 -1.820218447970E+01 -1.829717842385E+01 -1.838556736367E+01 -1.846731587348E+01
 -1.854239097298E+01 -1.861076222082E+01 -1.867240181256E+01 -1.872728468271E+01
 -1.877538861060E+01 -1.881669432984E+01 -1.885118564116E+01 -1.887884952850E+01
 -1.889967627803E+01 -1.891365960032E+01 -1.892079675554E+01 -1.892108868202E+01
 -1.891454012857E+01 -1.890115979116E+01 -1.888096045497E+01 -1.885395914299E+01
 -1.882017727276E+01 -1.877964082336E+01 -1.873238051508E+01 -1.867843200467E+01
 -1.861783609996E+01 -1.855063899777E+01 -1.847689254990E+01 -1.839665456267E+01
 -1.830998913605E+01 -1.821696704894E+01 -1.811766619793E+01 -1.801217209754E+01
 -1.790057844990E+01 -1.778298779287E+01 -1.765951223521E+01 -1.753027428771E+01
 -1.739540779877E+01 -1.725505900234E+01 -1.710938768515E+01 -1.695856847845E+01
 -1.680279227768E+01 -1.664226779057E+01 -1.647722321053E+01 -1.630790800825E+01
 -1.613459482843E+01 -1.595758147298E+01 -1.577719294377E+01 -1.559378351010E+01
 -1.540773875572E+01 -1.521947754974E+01 -1.502945387380E+01 -1.483815842501E+01
 -1.464611990140E+01 -1.445390586266E+01 -1.426212304645E+01 -1.407141700794E+01
 -1.388247094024E+01 -1.369600352465E+01 -1.351276565566E+01 -1.333353588399E+01
 -1.315911442621E+01 -1.299031559824E+01 -1.282795798594E+01 -1.267285924987E+01
 -1.252270324069E+01 -1.237410565362E+01 -1.222724699575E+01 -1.208209766919E+01
 -1.193864906594E+01 -1.179688356636E+01 -1.165678469913E+01 -1.151833562167E+01