<?xml version="1.0" encoding="UTF-8" ?>
<psml version="1.1" energy_unit="hartree" length_unit="bohr"
 uuid="ca0f6390-43c3-11e8-4ce8-b218daffe685"
 xmlns="http://esl.cecam.org/PSML/ns/1.1">
<provenance creator="ONCVPSP-3.3.0+psml-3.3.0-73 (fully-relativistic)"
 date="2018-04-19">
<annotation action="semilocal-pseudopotential-generation"
 action-cont="projectors-generation" />
<input-file name="oncvpsp-input">
<![CDATA[# atsym z nc nv iexc psfile
Mg 12 1 3 4 both
# n l f
1 0 2.0
2 0 2.0
2 1 6.0
3 0 2.0
# lmax
1
# l rc ep ncon nbas qcut
0 1.15 0.0 4 8 9.1
1 1.55 0.0 4 8 9.0
# lloc lpopt rc5 dvloc0
4 5 1.1 0.0
# l nproj debl
0 2 1.0
1 2 3.0
# icmod fcfact
0 4 1.5
# epsh1 epsh2 depsh
-12.0 12.0 0.02
# rlmax drl
4.0 0.01
 0
]]>
</input-file>
</provenance>
<pseudo-atom-spec atomic-label="Mg" atomic-number="12" z-pseudo="10"
 flavor="Hamann&apos;s oncvpsp" relativity="dirac" spin-dft="no"
 core-corrections="no">
<annotation pseudo-energy="-59.3383135201" />
<exchange-correlation>
<annotation oncvpsp-xc-code="4" oncvpsp-xc-type="GGA -- Perdew-Burke-Ernzerhof" />
<libxc-info number-of-functionals="2">
<functional name="Perdew, Burke &amp; Ernzerhof (GGA)" type="exchange" id="101" />
<functional name="Perdew, Burke &amp; Ernzerhof (GGA)" type="correlation"
 id="130" />
</libxc-info>
</exchange-correlation>
<valence-configuration total-valence-charge="10">
<shell n="2" l="s" occupation="2" />
<shell n="2" l="p" occupation="6" />
<shell n="3" l="s" occupation="2" />
</valence-configuration>
</pseudo-atom-spec>
<grid npts="457">
<annotation type="sampled from oncvpsp log grid"
 recipe="r(i:1..N) = r1*exp(a*(i-1)) + r=0; resampled"
 recipe-cont="r1: scale; a: step" scale="0.416666666667E-04"
 step="0.119285708653E-01" delta="0.500000000000E-02" rmax="44.1290725605" />
<grid-data>
  0.000000000000E+00  5.039120976724E-03  1.006524869499E-02  1.509947805150E-02
  2.010454437589E-02  2.521877418060E-02  3.052194271270E-02  3.564173488318E-02
  4.112680627824E-02  4.633723448486E-02  5.158871650650E-02  5.675430673824E-02
  6.243712872626E-02  6.787447925602E-02  7.291041759287E-02  7.831999673271E-02
  8.413093890731E-02  8.930140632003E-02  9.478963713363E-02  1.006151602554E-01
  1.067987047883E-01  1.120180571063E-01  1.174924840404E-01  1.232344513249E-01
  1.292570339063E-01  1.355739457160E-01  1.421995708979E-01  1.473804313857E-01
  1.527500499353E-01  1.583153037066E-01  1.640833204201E-01  1.700614874857E-01
  1.762574614640E-01  1.826791778729E-01  1.893348613508E-01  1.962330361902E-01
  2.033825372554E-01  2.107925212977E-01  2.158818959319E-01  2.210941484273E-01
  2.264322455469E-01  2.318992256834E-01  2.374982005883E-01  2.432323571433E-01
  2.491049591741E-01  2.551193493084E-01  2.612789508781E-01  2.675872698681E-01
  2.740478969118E-01  2.806645093349E-01  2.874408732483E-01  2.943808456920E-01
  3.014883768304E-01  3.087675122006E-01  3.162223950151E-01  3.238572685204E-01
  3.316764784115E-01  3.396844753063E-01  3.478858172781E-01  3.562851724504E-01
  3.648873216541E-01  3.736971611481E-01  3.827197054069E-01  3.919600899742E-01
  4.014235743866E-01  4.111155451665E-01  4.210415188890E-01  4.260940171157E-01
  4.312071453211E-01  4.363816310649E-01  4.416182106377E-01  4.469176291654E-01
  4.522806407154E-01  4.577080084040E-01  4.632005045048E-01  4.687589105589E-01
  4.743840174856E-01  4.800766256954E-01  4.858375452037E-01  4.916675957462E-01
  4.975676068951E-01  5.035384181779E-01  5.095808791960E-01  5.156958497464E-01
  5.218841999433E-01  5.281468103426E-01  5.344845720667E-01  5.408983869316E-01
  5.473891675747E-01  5.539578375856E-01  5.606053316367E-01  5.673325956163E-01
  5.741405867637E-01  5.810302738049E-01  5.880026370905E-01  5.950586687356E-01
  6.021993727604E-01  6.094257652335E-01  6.167388744164E-01  6.241397409093E-01
  6.316294178003E-01  6.392089708139E-01  6.468794784636E-01  6.546420322052E-01
  6.624977365917E-01  6.704477094308E-01  6.784930819439E-01  6.866349989273E-01
  6.948746189144E-01  7.032131143414E-01  7.116516717134E-01  7.201914917740E-01
  7.288337896753E-01  7.375797951514E-01  7.464307526932E-01  7.553879217255E-01
  7.644525767862E-01  7.736260077077E-01  7.829095198002E-01  7.923044340378E-01
  8.018120872462E-01  8.114338322932E-01  8.211710382807E-01  8.310250907401E-01
  8.409973918289E-01  8.510893605309E-01  8.613024328573E-01  8.716380620516E-01
  8.820977187962E-01  8.926828914217E-01  9.033950861188E-01  9.142358271522E-01
  9.252066570780E-01  9.363091369630E-01  9.475448466065E-01  9.589153847658E-01
  9.704223693830E-01  9.820674378156E-01  9.938522470694E-01  1.005778474034E+00
  1.017847815723E+00  1.030061989511E+00  1.042422733385E+00  1.054931806186E+00
  1.067590987860E+00  1.080402079715E+00  1.093366904671E+00  1.106487307527E+00
  1.119765155218E+00  1.133202337080E+00  1.146800765125E+00  1.160562374307E+00
  1.174489122798E+00  1.188582992272E+00  1.202845988179E+00  1.217280140037E+00
  1.231887501718E+00  1.246670151738E+00  1.261630193559E+00  1.276769755882E+00
  1.292090992953E+00  1.307596084868E+00  1.323287237886E+00  1.339166684741E+00
  1.355236684958E+00  1.371499525177E+00  1.387957519480E+00  1.404613009713E+00
  1.421468365830E+00  1.438525986220E+00  1.455788298054E+00  1.473257757631E+00
  1.490936850723E+00  1.508828092931E+00  1.526934030047E+00  1.545257238407E+00
  1.563800325268E+00  1.582565929171E+00  1.601556720321E+00  1.620775400965E+00
  1.640224705777E+00  1.659907402246E+00  1.679826291073E+00  1.699984206566E+00
  1.720384017045E+00  1.741028625249E+00  1.761920968752E+00  1.783064020377E+00
  1.804460788622E+00  1.826114318085E+00  1.848027689902E+00  1.870204022181E+00
  1.892646470447E+00  1.915358228093E+00  1.938342526830E+00  1.961602637152E+00
  1.985141868797E+00  2.008963571223E+00  2.033071134078E+00  2.057467987687E+00
  2.082157603539E+00  2.107143494781E+00  2.132429216719E+00  2.158018367319E+00
  2.183914587727E+00  2.210121562780E+00  2.236643021533E+00  2.263482737792E+00
  2.290644530645E+00  2.318132265013E+00  2.345949852193E+00  2.374101250419E+00
  2.402590465424E+00  2.431421551009E+00  2.460598609622E+00  2.490125792937E+00
  2.520007302452E+00  2.550247390082E+00  2.580850358763E+00  2.611820563068E+00
  2.643162409825E+00  2.674880358743E+00  2.706978923047E+00  2.739462670124E+00
  2.772336222165E+00  2.805604256831E+00  2.839271507913E+00  2.873342766008E+00
  2.907822879201E+00  2.942716753751E+00  2.978029354796E+00  3.013765707053E+00
  3.049930895538E+00  3.086530066285E+00  3.123568427080E+00  3.161051248205E+00
  3.198983863183E+00  3.237371669542E+00  3.276220129576E+00  3.315534771131E+00
  3.355321188385E+00  3.395585042645E+00  3.436332063157E+00  3.477568047915E+00
  3.519298864490E+00  3.561530450864E+00  3.604268816274E+00  3.647520042069E+00
  3.691290282574E+00  3.735585765965E+00  3.780412795157E+00  3.825777748699E+00
  3.871687081683E+00  3.918147326663E+00  3.965165094583E+00  4.012747075718E+00
  4.060900040627E+00  4.109630841114E+00  4.158946411208E+00  4.208853768142E+00
  4.259360013360E+00  4.310472333520E+00  4.362198001522E+00  4.414544377541E+00
  4.467518910071E+00  4.521129136992E+00  4.575382686636E+00  4.630287278875E+00
  4.685850726222E+00  4.742080934937E+00  4.798985906156E+00  4.856573737030E+00
  4.914852621874E+00  4.973830853337E+00  5.033516823577E+00  5.093919025460E+00
  5.155046053765E+00  5.216906606410E+00  5.279509485687E+00  5.342863599515E+00
  5.406977962710E+00  5.471861698262E+00  5.537524038641E+00  5.603974327105E+00
  5.671222019030E+00  5.739276683259E+00  5.808148003458E+00  5.877845779499E+00
  5.948379928853E+00  6.019760487999E+00  6.091997613855E+00  6.165101585222E+00
  6.239082804244E+00  6.313951797895E+00  6.389719219470E+00  6.466395850104E+00
  6.543992600305E+00  6.622520511509E+00  6.701990757647E+00  6.782414646738E+00
  6.863803622499E+00  6.946169265969E+00  7.029523297161E+00  7.113877576727E+00
  7.199244107648E+00  7.285635036939E+00  7.373062657383E+00  7.461539409271E+00
  7.551077882182E+00  7.641690816769E+00  7.733391106570E+00  7.826191799849E+00
  7.920106101447E+00  8.015147374664E+00  8.111329143160E+00  8.208665092878E+00
  8.307169073993E+00  8.406855102881E+00  8.507737364115E+00  8.609830212485E+00
  8.713148175034E+00  8.817705953135E+00  8.923518424572E+00  9.030600645667E+00
  9.138967853415E+00  9.248635467656E+00  9.359619093268E+00  9.471934522387E+00
  9.585597736656E+00  9.700624909496E+00  9.817032408410E+00  9.934836797311E+00
  1.005405483888E+01  1.017470349694E+01  1.029679993891E+01  1.042036153818E+01
  1.054540587663E+01  1.067195074715E+01  1.080001415612E+01  1.092961432599E+01
  1.106076969790E+01  1.119349893428E+01  1.132782092149E+01  1.146375477255E+01
  1.160131982982E+01  1.174053566778E+01  1.188142209579E+01  1.202399916094E+01
  1.216828715087E+01  1.231430659668E+01  1.246207827584E+01  1.261162321515E+01
  1.276296269373E+01  1.291611824606E+01  1.307111166501E+01  1.322796500499E+01
  1.338670058505E+01  1.354734099207E+01  1.370990908398E+01  1.387442799298E+01
  1.404092112890E+01  1.420941218245E+01  1.437992512864E+01  1.455248423018E+01
  1.472711404094E+01  1.490383940943E+01  1.508268548235E+01  1.526367770813E+01
  1.544684184063E+01  1.563220394272E+01  1.581979039003E+01  1.600962787471E+01
  1.620174340921E+01  1.639616433012E+01  1.659291830208E+01  1.679203332171E+01
  1.699353772157E+01  1.719746017423E+01  1.740382969632E+01  1.761267565267E+01
  1.782402776050E+01  1.803791609363E+01  1.825437108675E+01  1.847342353979E+01
  1.869510462227E+01  1.891944587774E+01  1.914647922827E+01  1.937623697901E+01
  1.960875182276E+01  1.984405684463E+01  2.008218552677E+01  2.032317175309E+01
  2.056704981413E+01  2.081385441190E+01  2.106362066484E+01  2.131638411282E+01
  2.157218072217E+01  2.183104689084E+01  2.209301945353E+01  2.235813568697E+01
  2.262643331521E+01  2.289795051500E+01  2.317272592118E+01  2.345079863223E+01
  2.373220821582E+01  2.401699471441E+01  2.430519865098E+01  2.459686103479E+01
  2.489202336721E+01  2.519072764761E+01  2.549301637939E+01  2.579893257594E+01
  2.610851976685E+01  2.642182200405E+01  2.673888386810E+01  2.705975047452E+01
  2.738446748021E+01  2.771308108997E+01  2.804563806305E+01  2.838218571981E+01
  2.872277194845E+01  2.906744521183E+01  2.941625455437E+01  2.976924960902E+01
  3.012648060433E+01  3.048799837158E+01  3.085385435204E+01  3.122410060427E+01
  3.159878981152E+01  3.197797528926E+01  3.236171099273E+01  3.275005152464E+01
  3.314305214294E+01  3.354076876865E+01  3.394325799388E+01  3.435057708980E+01
  3.476278401488E+01  3.517993742306E+01  3.560209667214E+01  3.602932183220E+01
  3.646167369419E+01  3.689921377852E+01  3.734200434386E+01  3.779010839599E+01
  3.824358969674E+01  3.870251277310E+01  3.916694292638E+01  3.963694624149E+01
  4.011258959639E+01  4.059394067155E+01  4.108106795961E+01  4.157404077512E+01
  4.207292926442E+01  4.257780441560E+01  4.308873806858E+01  4.360580292541E+01
  4.412907256051E+01
</grid-data>
</grid>
<valence-charge total-charge="10" is-unscreening-charge="yes"
 rescaled-to-z-pseudo="no">
<radfunc>
<data npts="457">
  2.572719045082E+01  2.573425015488E+01  2.575534441429E+01  2.579050532081E+01
  2.583932550949E+01  2.590340295430E+01  2.598487808393E+01  2.607791178282E+01
  2.619306505260E+01  2.631707785276E+01  2.645625361544E+01  2.660679809658E+01
  2.678772586259E+01  2.697550297923E+01  2.716188182440E+01  2.737507247148E+01
  2.761859600035E+01  2.784748503376E+01  2.810254290826E+01  2.838634942652E+01
  2.870162431482E+01  2.897840158455E+01  2.927861419613E+01  2.960375721987E+01
  2.995531180961E+01  3.033471428321E+01  3.074331740826E+01  3.106967394101E+01
  3.141359506854E+01  3.177545306524E+01  3.215552549160E+01  3.255397397252E+01
  3.297082020615E+01  3.340591901391E+01  3.385892826738E+01  3.432927556619E+01
  3.481612159618E+01  3.531832017211E+01  3.566092531757E+01  3.600915780352E+01
  3.636239387442E+01  3.671991861801E+01  3.708091923766E+01  3.744447821940E+01
  3.780956645582E+01  3.817503640132E+01  3.853961534733E+01  3.890189892095E+01
  3.926034492684E+01  3.961326766994E+01  3.995883291499E+01  4.029505365879E+01
  4.061978691084E+01  4.093073169900E+01  4.122542853680E+01  4.150126060889E+01
  4.175545694929E+01  4.198509790301E+01  4.218712317445E+01  4.235834277431E+01
  4.249545117942E+01  4.259504501525E+01  4.265364455767E+01  4.266771932648E+01
  4.263371800681E+01  4.254810288396E+01  4.240738891014E+01  4.231530584512E+01
  4.220818743671E+01  4.208563309561E+01  4.194725454139E+01  4.179267754885E+01
  4.162154375463E+01  4.143351251979E+01  4.122826284345E+01  4.100549532149E+01
  4.076493414389E+01  4.050632912321E+01  4.022945774591E+01  3.993412723734E+01
  3.962017663038E+01  3.928747882671E+01  3.893594263891E+01  3.856551480054E+01
  3.817618193071E+01  3.776797243852E+01  3.734095835229E+01  3.689525705741E+01
  3.643103292623E+01  3.594849882271E+01  3.544791746413E+01  3.492960262164E+01
  3.439392014148E+01  3.384128876821E+01  3.327218075184E+01  3.268712222061E+01
  3.208669330195E+01  3.147152797451E+01  3.084231363552E+01  3.019979036838E+01
  2.954474989730E+01  2.887803421704E+01  2.820053388821E+01  2.751318599032E+01
  2.681697172787E+01  2.611291368685E+01  2.540207274272E+01  2.468554462371E+01
  2.396445613704E+01  2.323996106926E+01  2.251323577573E+01  2.178547447827E+01
  2.105788429416E+01  2.033168002344E+01  1.960807872589E+01  1.888829412275E+01
  1.817353086218E+01  1.746497869086E+01  1.676380657766E+01  1.607115683794E+01
  1.538813930947E+01  1.471582563320E+01  1.405524369273E+01  1.340737226783E+01
  1.277313595627E+01  1.215340041831E+01  1.154896799556E+01  1.096057375420E+01
  1.038888199851E+01  9.834483296695E+00  9.297892055948E+00  8.779544677666E+00
  8.279798317274E+00  7.798930265897E+00  7.337137963405E+00  6.894539644235E+00
  6.471175609043E+00  6.067010106796E+00  5.681933803494E+00  5.315766805625E+00
  4.968262198712E+00  4.639110054242E+00  4.327941851909E+00  4.034335258747E+00
  3.757819202389E+00  3.497879172559E+00  3.253962683045E+00  3.025484825881E+00
  2.811833850261E+00  2.612376700856E+00  2.426464453609E+00  2.253437591606E+00
  2.092631217726E+00  1.943380583824E+00  1.805026608780E+00  1.676919755077E+00
  1.558423561461E+00  1.448917770211E+00  1.347801070068E+00  1.254493447124E+00
  1.168438152949E+00  1.089103302937E+00  1.015983122739E+00  9.485988640869E-01
  8.864994136355E-01  8.292616194747E-01  7.764903599731E-01  7.278183785519E-01
  6.829059061713E-01  6.414400909176E-01  6.031342514124E-01  5.677269681160E-01
  5.349810242876E-01  5.046822066804E-01  4.766379752637E-01  4.506760115684E-01
  4.266426567690E-01  4.044006834581E-01  3.838248715601E-01  3.647967625049E-01
  3.472044695035E-01  3.309424088149E-01  3.159110630137E-01  3.020167342669E-01
  2.891712895930E-01  2.772919011132E-01  2.663007854041E-01  2.561249469923E-01
  2.466959315269E-01  2.379495939548E-01  2.298258859583E-01  2.222686650222E-01
  2.152255250808E-01  2.086476462135E-01  2.024896588772E-01  1.967095170908E-01
  1.912683749936E-01  1.861304621521E-01  1.812629545362E-01  1.766358397922E-01
  1.722217769569E-01  1.679959518503E-01  1.639359300091E-01  1.600215092179E-01
  1.562345735855E-01  1.525589508207E-01  1.489802739906E-01  1.454858486724E-01
  1.420645260759E-01  1.387065824470E-01  1.354036048498E-01  1.321483832821E-01
  1.289348089713E-01  1.257577786414E-01  1.226131044977E-01  1.194974296674E-01
  1.164081488238E-01  1.133433337327E-01  1.103016634671E-01  1.072823590485E-01
  1.042851222917E-01  1.013100786392E-01  9.835772378815E-02  9.542887392584E-02
  9.252461939873E-02  8.964628165343E-02  8.679537329538E-02  8.397356111937E-02
  8.118263197345E-02  7.842446132327E-02  7.570098438950E-02  7.301416973556E-02
  7.036599518683E-02  6.775842596658E-02  6.519339493719E-02  6.267278483859E-02
  6.019841241939E-02  5.777201435956E-02  5.539523488688E-02  5.306961499341E-02
  5.079658316189E-02  4.857744751623E-02  4.641338931447E-02  4.430545770686E-02
  4.225456568636E-02  4.026148716297E-02  3.832685509749E-02  3.645116063432E-02
  3.463475317600E-02  3.287784134537E-02  3.118049478314E-02  2.954264673014E-02
  2.796409734442E-02  2.644451770281E-02  2.498345443617E-02  2.358033494596E-02
  2.223447314786E-02  2.094507568724E-02  1.971124856150E-02  1.853200409847E-02
  1.740626822092E-02  1.633288793472E-02  1.531063897561E-02  1.433823354948E-02
  1.341432810221E-02  1.253753105619E-02  1.170641045403E-02  1.091950145253E-02
  1.017531361478E-02  9.472337952541E-03  8.809053676492E-03  8.183934617617E-03
  7.595455288619E-03  7.042096560386E-03  6.522350934333E-03  6.034727397223E-03
  5.577755850558E-03  5.149991111827E-03  4.750016489649E-03  4.376446939197E-03
  4.027931808135E-03  3.703157186646E-03  3.400847878013E-03  3.119769008526E-03
  2.858727297407E-03  2.616572008817E-03  2.392195609025E-03  2.184534152351E-03
  1.992567419745E-03  1.815318833696E-03  1.651855172774E-03  1.501286108406E-03
  1.362763585592E-03  1.235481068188E-03  1.118672668146E-03  1.011612176781E-03
  9.136120146899E-04  8.240221155414E-04  7.422287574643E-04  6.676533543363E-04
  5.997512178843E-04  5.380103001836E-04  4.819499249078E-04  4.311195145468E-04
  3.850973197866E-04  3.434891563344E-04  3.059271536787E-04  2.720685195911E-04
  2.415943236038E-04  2.142083022114E-04  1.896356881579E-04  1.676220658423E-04
  1.479322546201E-04  1.303492215618E-04  1.146730250532E-04  1.007197904716E-04
  8.832071903309E-05  7.732113078026E-05  6.757954255666E-05  5.896678167947E-05
  5.136513590142E-05  4.466754010561E-05  3.877680003731E-05  3.360485322870E-05
  2.907206711817E-05  2.510657421173E-05  2.164364398060E-05  1.862509103789E-05
  1.599871899202E-05  1.371779923657E-05  1.174058380829E-05  1.002985132817E-05
  8.552484936356E-06  7.279081041338E-06  6.183587628018E-06  5.242970807472E-06
  4.436908244683E-06  3.747508067714E-06  3.159051842902E-06  2.657760194565E-06
  2.231579653580E-06  1.869989335934E-06  1.563826078824E-06  1.305126696888E-06
  1.086986063455E-06  9.034297701447E-07  7.493001715219E-07  6.201546787369E-07
  5.121752260638E-07  4.220878960983E-07  3.470917521399E-07  2.847959892238E-07
  2.331645776788E-07  1.904676343697E-07  1.552388164431E-07  1.262380899972E-07
  1.024192813260E-07  8.290187096702E-08  6.694654053474E-08  5.393402911649E-08
  4.334689977242E-08  3.475385740063E-08  2.779629691679E-08  2.217679541482E-08
  1.764929380420E-08  1.401074247025E-08  1.109401190180E-08  8.761893117816E-09
  6.902034248657E-09  5.422678946004E-09  4.249089563898E-09  3.320553430698E-09
  2.587884172271E-09  2.011342101458E-09  1.558908302452E-09  1.204856349460E-09
  9.285737370082E-10  7.135921867813E-10  5.467921464406E-10  4.177521144354E-10
  3.182180076604E-10  2.416717238599E-10  1.829814176182E-10  1.381188795500E-10
  1.039318474737E-10  7.796114354228E-11  5.829427374923E-11  4.344859119742E-11
  3.227835187836E-11  2.390101636882E-11  1.763900326493E-11  1.297380677388E-11
  9.509974524045E-12  6.946922002692E-12  5.056953940569E-12  3.668184817352E-12
  2.651312680126E-12  1.909412989102E-12  1.370090941568E-12  9.794689857302E-13
  6.975971271589E-13  4.949622325244E-13  3.498430574785E-13  2.463136405358E-13
  1.727418655665E-13  1.206647359064E-13  8.394912424912E-14  5.816800647460E-14
  4.013869979019E-14  2.758240754183E-14  1.887422666712E-14  1.286033825527E-14
  8.724884395814E-15  5.893436326093E-15  3.963295174450E-15  2.653384292423E-15
  1.768383782298E-15  1.173172739968E-15  7.746983310454E-16  5.091718092191E-16
  3.330678498812E-16  2.168268047424E-16  1.404688662794E-16  9.055421813200E-17
  5.808622199148E-17  3.707212025468E-17  2.353993643649E-17  1.487030831198E-17
  9.344684408500E-18  5.841336573403E-18  3.631911267917E-18  2.245979152394E-18
  1.381323666708E-18  8.448426578164E-19  5.138281916117E-19  3.107366294426E-19
  1.868399583956E-19  1.116914337122E-19  6.637620260794E-20  3.921178796031E-20
  2.302509829041E-20  1.343802555584E-20  7.794471684541E-21  4.492859973274E-21
  2.573424133509E-21  1.464599906694E-21  8.281558692391E-22  4.652184797614E-22
  0.000000000000E+00  0.000000000000E+00  0.000000000000E+00  0.000000000000E+00
  0.000000000000E+00  0.000000000000E+00  0.000000000000E+00  0.000000000000E+00
  0.000000000000E+00
</data>
</radfunc>
</valence-charge>
<semilocal-potentials set="scalar_relativistic">
<slps n="2" l="s" rc="1.16056237431">
<radfunc>
<data npts="256">
 -2.047119702658E+01 -2.047161693693E+01 -2.047282854096E+01 -2.047471088366E+01
 -2.047705185200E+01 -2.047967096254E+01 -2.048231249431E+01 -2.048446889272E+01
 -2.048599986961E+01 -2.048640291241E+01 -2.048551230976E+01 -2.048316485597E+01
 -2.047872017496E+01 -2.047252554822E+01 -2.046504058799E+01 -2.045511379005E+01
 -2.044229791066E+01 -2.042906889425E+01 -2.041321769355E+01 -2.039445123693E+01
 -2.037247234401E+01 -2.035237528129E+01 -2.032987733650E+01 -2.030482491592E+01
 -2.027706415179E+01 -2.024644043349E+01 -2.021279763542E+01 -2.018548892650E+01
 -2.015632445508E+01 -2.012523426127E+01 -2.009214632303E+01 -2.005698605357E+01
 -2.001967572276E+01 -1.998013378357E+01 -1.993827407624E+01 -1.989400487315E+01
 -1.984722771515E+01 -1.979783597631E+01 -1.976339850930E+01 -1.972770999994E+01
 -1.969073025565E+01 -1.965241592505E+01 -1.961272002405E+01 -1.957159138900E+01
 -1.952897404875E+01 -1.948480650834E+01 -1.943902093849E+01 -1.939154226780E+01
 -1.934228717930E+01 -1.929116301855E+01 -1.923806662986E+01 -1.918288314797E+01
 -1.912548478692E+01 -1.906572968449E+01 -1.900346087930E+01 -1.893850551713E+01
 -1.887067440021E+01 -1.879976200654E+01 -1.872554710932E+01 -1.864779411696E+01
 -1.856625522587E+01 -1.848067342891E+01 -1.839078635138E+01 -1.829633079812E+01
 -1.819704779772E+01 -1.809268783857E+01 -1.798301592280E+01 -1.792611963147E+01
 -1.786781603760E+01 -1.780808168365E+01 -1.774689467191E+01 -1.768423470352E+01
 -1.762008309548E+01 -1.755442277600E+01 -1.748723825980E+01 -1.741851560529E+01
 -1.734824235640E+01 -1.727640747222E+01 -1.720300124822E+01 -1.712801523267E+01
 -1.705144214244E+01 -1.697327578208E+01 -1.689351096971E+01 -1.681214347325E+01
 -1.672916995994E+01 -1.664458796129E+01 -1.655839585546E+01 -1.647059286804E+01
 -1.638117909164E+01 -1.629015552414E+01 -1.619752412468E+01 -1.610328788598E+01
 -1.600745092102E+01 -1.591001856173E+01 -1.581099746676E+01 -1.571039573549E+01
 -1.560822302466E+01 -1.550449066445E+01 -1.539921177020E+01 -1.529240134639E+01
 -1.518407637909E+01 -1.507425591356E+01 -1.496296111363E+01 -1.485021529957E+01
 -1.473604396166E+01 -1.462047474669E+01 -1.450353741520E+01 -1.438526376754E+01
 -1.426568753736E+01 -1.414484425175E+01 -1.402277105801E+01 -1.389950651757E+01
 -1.377509036880E+01 -1.364956326137E+01 -1.352296646597E+01 -1.339534156473E+01
 -1.326673012924E+01 -1.313717339466E+01 -1.300671194073E+01 -1.287538539231E+01
 -1.274323215488E+01 -1.261028920273E+01 -1.247659194047E+01 -1.234217416140E+01
 -1.220706812888E+01 -1.207130480982E+01 -1.193491429124E+01 -1.179792641300E+01
 -1.166037164980E+01 -1.152228227547E+01 -1.138369383935E+01 -1.124464698046E+01
 -1.110518959739E+01 -1.096537938214E+01 -1.082528671300E+01 -1.068499788605E+01
 -1.054461864709E+01 -1.040427796657E+01 -1.026413198037E+01 -1.012436800080E+01
 -9.985208485806E+00 -9.846914841793E+00 -9.709790928733E+00 -9.574186135139E+00
 -9.440497897435E+00 -9.309173552688E+00 -9.180711436321E+00 -9.055661166917E+00
 -8.934623098209E+00 -8.818246963132E+00 -8.707229819974E+00 -8.602313000657E+00
 -8.501252489122E+00 -8.401133979063E+00 -8.302051704556E+00 -8.204035730115E+00
 -8.107113803010E+00 -8.011310171688E+00 -7.916644648629E+00 -7.823131691436E+00
 -7.730779593455E+00 -7.639589801474E+00 -7.549556409786E+00 -7.460665892593E+00
 -7.372897146531E+00 -7.286221915331E+00 -7.200605656747E+00 -7.116008888384E+00
 -7.032389019454E+00 -6.949702648978E+00 -6.867908299038E+00 -6.786969562448E+00
 -6.706858677169E+00 -6.627560579812E+00 -6.549077504606E+00 -6.471434493749E+00
 -6.394681072732E+00 -6.318856437532E+00 -6.243928948678E+00 -6.169890464668E+00
 -6.096729876488E+00 -6.024436783694E+00 -5.953000866376E+00 -5.882411925476E+00
 -5.812659884200E+00 -5.743734793446E+00 -5.675626831223E+00 -5.608326307697E+00
 -5.541823664122E+00 -5.476109470824E+00 -5.411174422229E+00 -5.347009329805E+00
 -5.283605114059E+00 -5.220952797022E+00 -5.159043496402E+00 -5.097868422124E+00
 -5.037418875250E+00 -4.977686248789E+00 -4.918662029578E+00 -4.860337800453E+00
 -4.802705242073E+00 -4.745756134064E+00 -4.689482355364E+00 -4.633875883852E+00
 -4.578928795420E+00 -4.524633262689E+00 -4.470981553511E+00 -4.417966029414E+00
 -4.365579144051E+00 -4.313813441711E+00 -4.262661555911E+00 -4.212116208073E+00
 -4.162170206281E+00 -4.112816444101E+00 -4.064047899468E+00 -4.015857633610E+00
 -3.968238790019E+00 -3.921184593448E+00 -3.874688348929E+00 -3.828743440822E+00
 -3.783343331867E+00 -3.738481562266E+00 -3.694151748764E+00 -3.650347583752E+00
 -3.607062834375E+00 -3.564291341654E+00 -3.522027019616E+00 -3.480263854435E+00
 -3.438995903581E+00 -3.398217294981E+00 -3.357922226187E+00 -3.318104963559E+00
 -3.278759841444E+00 -3.239881261384E+00 -3.201463691313E+00 -3.163501664780E+00
 -3.125989780166E+00 -3.088922699923E+00 -3.052295149814E+00 -3.016101918162E+00
 -2.980337855110E+00 -2.944997871886E+00 -2.910076940082E+00 -2.875570090932E+00
 -2.841472414605E+00 -2.807779059503E+00 -2.774485231567E+00 -2.741586193590E+00
 -2.709077264537E+00 -2.676953818878E+00 -2.645211285916E+00 -2.613845149141E+00
 -2.582850945572E+00 -2.552224265126E+00 -2.521960749973E+00 -2.492056093990E+00
</data>
</radfunc>
</slps>
<slps n="2" l="p" rc="1.56380032527">
<radfunc>
<data npts="256">
 -2.584243888244E+01 -2.584278421089E+01 -2.584377274135E+01 -2.584528251117E+01
 -2.584710462451E+01 -2.584903998913E+01 -2.585080761495E+01 -2.585195990213E+01
 -2.585223875390E+01 -2.585128174063E+01 -2.584885029817E+01 -2.584481866023E+01
 -2.583832549424E+01 -2.582997620103E+01 -2.582032325820E+01 -2.580788003840E+01
 -2.579214093506E+01 -2.577611585040E+01 -2.575709213234E+01 -2.573472332365E+01
 -2.570865068216E+01 -2.568487739284E+01 -2.565830197267E+01 -2.562872419566E+01
 -2.559593769685E+01 -2.555972871434E+01 -2.551987442116E+01 -2.548745120278E+01
 -2.545274254746E+01 -2.541563984226E+01 -2.537602870982E+01 -2.533378814613E+01
 -2.528878955100E+01 -2.524089563067E+01 -2.518995914372E+01 -2.513582145214E+01
 -2.507831082741E+01 -2.501724044760E+01 -2.497444912988E+01 -2.492991988612E+01
 -2.488358283662E+01 -2.483536314807E+01 -2.478518046419E+01 -2.473294826030E+01
 -2.467857311357E+01 -2.462195388135E+01 -2.456298078201E+01 -2.450153437479E+01
 -2.443748443997E+01 -2.437068876628E+01 -2.430099186135E+01 -2.422822361177E+01
 -2.415219793330E+01 -2.407271146804E+01 -2.398954240392E+01 -2.390244951032E+01
 -2.381117150080E+01 -2.371542684601E+01 -2.361491416245E+01 -2.350931329209E+01
 -2.339828715861E+01 -2.328148443556E+01 -2.315854299014E+01 -2.302909397610E+01
 -2.289276635171E+01 -2.274919150566E+01 -2.259800760547E+01 -2.251945196182E+01
 -2.243886325570E+01 -2.235619961824E+01 -2.227142008269E+01 -2.218448458713E+01
 -2.209535395306E+01 -2.200398984009E+01 -2.191035467842E+01 -2.181441158110E+01
 -2.171612423885E+01 -2.161545680080E+01 -2.151237374487E+01 -2.140683974203E+01
 -2.129881951842E+01 -2.118827771985E+01 -2.107517878263E+01 -2.095948681471E+01
 -2.084116549050E+01 -2.072017796266E+01 -2.059648679322E+01 -2.047005390617E+01
 -2.034084056314E+01 -2.020880736288E+01 -2.007391426549E+01 -1.993612064118E+01
 -1.979538534351E+01 -1.965166680674E+01 -1.950492316637E+01 -1.935511240245E+01
 -1.920219250466E+01 -1.904612165853E+01 -1.888685845220E+01 -1.872436210327E+01
 -1.855859270552E+01 -1.838951149552E+01 -1.821708113941E+01 -1.804126604051E+01
 -1.786203266862E+01 -1.767934991230E+01 -1.749318945560E+01 -1.730352618130E+01
 -1.711033860269E+01 -1.691360932662E+01 -1.671332555056E+01 -1.650947959694E+01
 -1.630206948833E+01 -1.609109956722E+01 -1.587658116474E+01 -1.565853332275E+01
 -1.543698357436E+01 -1.521196878817E+01 -1.498353608199E+01 -1.475174381247E+01
 -1.451666264715E+01 -1.427837672649E+01 -1.403698492341E+01 -1.379260220874E+01
 -1.354536113081E+01 -1.329541341755E+01 -1.304293170876E+01 -1.278811142476E+01
 -1.253117277520E+01 -1.227236290777E+01 -1.201195819049E+01 -1.175026661365E+01
 -1.148763028589E+01 -1.122442798598E+01 -1.096107771499E+01 -1.069803917397E+01
 -1.043581607134E+01 -1.017495814055E+01 -9.916062725716E+00 -9.659775770497E+00
 -9.406792026059E+00 -9.157854278881E+00 -8.913751390055E+00 -8.675314936336E+00
 -8.443414250697E+00 -8.218949677596E+00 -8.002843886326E+00 -7.796031125039E+00
 -7.599444348446E+00 -7.414000213457E+00 -7.240582042901E+00 -7.080020472105E+00
 -6.933070636846E+00 -6.800389038760E+00 -6.682517822972E+00 -6.579858011694E+00
 -6.492647064915E+00 -6.420936733444E+00 -6.364572677274E+00 -6.323176344432E+00
 -6.296129906362E+00 -6.282564915898E+00 -6.281355290267E+00 -6.291115104417E+00
 -6.310201534767E+00 -6.336723127332E+00 -6.368553392088E+00 -6.403349568679E+00
 -6.438576294547E+00 -6.471533866925E+00 -6.499390857248E+00 -6.519221037225E+00
 -6.528044924793E+00 -6.522876751223E+00 -6.500778260036E+00 -6.458921781812E+00
 -6.394660771704E+00 -6.318856437532E+00 -6.243928948678E+00 -6.169890464668E+00
 -6.096729876488E+00 -6.024436783694E+00 -5.953000866376E+00 -5.882411925476E+00
 -5.812659884200E+00 -5.743734793446E+00 -5.675626831222E+00 -5.608326307697E+00
 -5.541823664122E+00 -5.476109470824E+00 -5.411174422229E+00 -5.347009329805E+00
 -5.283605114059E+00 -5.220952797022E+00 -5.159043496402E+00 -5.097868422124E+00
 -5.037418875250E+00 -4.977686248789E+00 -4.918662029578E+00 -4.860337800453E+00