<?xml version="1.0" encoding="UTF-8" ?>
<psml version="1.1" energy_unit="hartree" length_unit="bohr"
 uuid="cc7f83c0-43c4-11e8-706f-1f85f75f75ca"
 xmlns="http://esl.cecam.org/PSML/ns/1.1">
<provenance creator="ONCVPSP-3.3.0+psml-3.3.0-73 (fully-relativistic)"
 date="2018-04-19">
<annotation action="semilocal-pseudopotential-generation"
 action-cont="projectors-generation" />
<input-file name="oncvpsp-input">
<![CDATA[# atsym z nc nv iexc psfile
Y 39 6 4 4 both
# n l f
1 0 2.0
2 0 2.0
2 1 6.0
3 0 2.0
3 1 6.0
3 2 10.0
4 0 2.0
4 1 6.0
4 2 1.0
5 0 2.0
# lmax
2
# l rc ep ncon nbas qcut
0 1.6 0.0 4 7 7.0
1 1.5 0.0 4 9 8.6
2 1.55 0.0 4 9 8.8
# lloc lpopt rc5 dvloc0
4 5 1.5 0.0
# l nproj debl
0 2 1.0
1 2 2.0
2 2 3.2
# icmod fcfact
3 4 1.35
# epsh1 epsh2 depsh
-12.0 12.0 0.02
# rlmax drl
6.0 0.01
 0
]]>
</input-file>
</provenance>
<pseudo-atom-spec atomic-label="Y" atomic-number="39" z-pseudo="11"
 flavor="Hamann&apos;s oncvpsp" relativity="dirac" spin-dft="no"
 core-corrections="yes">
<annotation pseudo-energy="-38.3795362565" />
<exchange-correlation>
<annotation oncvpsp-xc-code="4" oncvpsp-xc-type="GGA -- Perdew-Burke-Ernzerhof" />
<libxc-info number-of-functionals="2">
<functional name="Perdew, Burke &amp; Ernzerhof (GGA)" type="exchange" id="101" />
<functional name="Perdew, Burke &amp; Ernzerhof (GGA)" type="correlation"
 id="130" />
</libxc-info>
</exchange-correlation>
<valence-configuration total-valence-charge="11">
<shell n="4" l="s" occupation="2" />
<shell n="4" l="p" occupation="6" />
<shell n="4" l="d" occupation="1" />
<shell n="5" l="s" occupation="2" />
</valence-configuration>
</pseudo-atom-spec>
<grid npts="457">
<annotation type="sampled from oncvpsp log grid"
 recipe="r(i:1..N) = r1*exp(a*(i-1)) + r=0; resampled"
 recipe-cont="r1: scale; a: step" scale="0.128205128205E-04"
 step="0.119285708653E-01" delta="0.500000000000E-02" rmax="44.2295149952" />
<grid-data>
  0.000000000000E+00  5.050590548830E-03  1.008815826517E-02  1.513384605994E-02
  2.015030444445E-02  2.527617477690E-02  3.059141388125E-02  3.572285924000E-02
  4.073163561015E-02  4.589199894225E-02  5.109302162005E-02  5.620897780706E-02
  6.183719588184E-02  6.722230113325E-02  7.307636941178E-02  7.849826132568E-02
  8.432242981903E-02  8.950466576223E-02  9.500538836940E-02  1.008441709977E-01
  1.070417899317E-01  1.122730220474E-01  1.177599093560E-01  1.235149459651E-01
  1.295512365812E-01  1.358825263501E-01  1.425232321553E-01  1.477158848294E-01
  1.530977251985E-01  1.586756460758E-01  1.644567914052E-01  1.704485654110E-01
  1.766586420811E-01  1.830949749956E-01  1.897658075127E-01  1.966796833273E-01
  2.038454574128E-01  2.112723073622E-01  2.163732659512E-01  2.215973820843E-01
  2.269476292774E-01  2.324270528386E-01  2.380387716024E-01  2.437859797039E-01
  2.496719483979E-01  2.557000279200E-01  2.618736493941E-01  2.681963267851E-01
  2.746716588990E-01  2.813033314314E-01  2.880951190655E-01  2.950508876202E-01
  3.021745962510E-01  3.094702997028E-01  3.169421506189E-01  3.245944019034E-01
  3.324314091430E-01  3.404576330853E-01  3.486776421785E-01  3.570961151713E-01
  3.657178437760E-01  3.745477353961E-01  3.835908159195E-01  3.928522325791E-01
  4.023372568825E-01  4.120512876126E-01  4.219998539007E-01  4.270638521475E-01
  4.321886183733E-01  4.373748817938E-01  4.426233803753E-01  4.479348609398E-01
  4.533100792711E-01  4.587498002224E-01  4.642547978250E-01  4.698258553989E-01
  4.754637656637E-01  4.811693308517E-01  4.869433628219E-01  4.927866831758E-01
  4.987001233739E-01  5.046845248544E-01  5.107407391526E-01  5.168696280224E-01
  5.230720635587E-01  5.293489283214E-01  5.357011154613E-01  5.421295288468E-01
  5.486350831930E-01  5.552187041913E-01  5.618813286416E-01  5.686239045853E-01
  5.754473914403E-01  5.823527601376E-01  5.893409932592E-01  5.964130851783E-01
  6.035700422005E-01  6.108128827069E-01  6.181426372994E-01  6.255603489470E-01
  6.330670731343E-01  6.406638780119E-01  6.483518445481E-01  6.561320666827E-01
  6.640056514829E-01  6.719737193007E-01  6.800374039323E-01  6.881978527794E-01
  6.964562270128E-01  7.048137017370E-01  7.132714661578E-01  7.218307237517E-01
  7.304926924367E-01  7.392586047460E-01  7.481297080029E-01  7.571072644989E-01
  7.661925516729E-01  7.753868622930E-01  7.846915046405E-01  7.941078026962E-01
  8.036370963286E-01  8.132807414845E-01  8.230401103823E-01  8.329165917069E-01
  8.429115908074E-01  8.530265298971E-01  8.632628482558E-01  8.736220024349E-01
  8.841054664641E-01  8.947147320617E-01  9.054513088464E-01  9.163167245526E-01
  9.273125252472E-01  9.384402755502E-01  9.497015588568E-01  9.610979775631E-01
  9.726311532938E-01  9.843027271334E-01  9.961143598590E-01  1.008067732177E+00
  1.020164544963E+00  1.032406519503E+00  1.044795397737E+00  1.057332942510E+00
  1.070020937820E+00  1.082861189074E+00  1.095855523343E+00  1.109005789623E+00
  1.122313859098E+00  1.135781625407E+00  1.149411004912E+00  1.163203936971E+00
  1.177162384215E+00  1.191288332826E+00  1.205583792819E+00  1.220050798333E+00
  1.234691407913E+00  1.249507704808E+00  1.264501797266E+00  1.279675818833E+00
  1.295031928659E+00  1.310572311803E+00  1.326299179545E+00  1.342214769699E+00
  1.358321346936E+00  1.374621203099E+00  1.391116657536E+00  1.407810057426E+00
  1.424703778116E+00  1.441800223453E+00  1.459101826134E+00  1.476611048048E+00
  1.494330380625E+00  1.512262345192E+00  1.530409493334E+00  1.548774407254E+00
  1.567359700141E+00  1.586168016543E+00  1.605202032742E+00  1.624464457135E+00
  1.643958030620E+00  1.663685526988E+00  1.683649753311E+00  1.703853550351E+00
  1.724299792955E+00  1.744991390471E+00  1.765931287156E+00  1.787122462602E+00
  1.808567932154E+00  1.830270747339E+00  1.852233996308E+00  1.874460804263E+00
  1.896954333914E+00  1.919717785921E+00  1.942754399352E+00  1.966067452145E+00
  1.989660261570E+00  2.013536184709E+00  2.037698618926E+00  2.062151002353E+00
  2.086896814381E+00  2.111939576154E+00  2.137282851067E+00  2.162930245280E+00
  2.188885408224E+00  2.215152033122E+00  2.241733857520E+00  2.268634663810E+00
  2.295858279776E+00  2.323408579133E+00  2.351289482083E+00  2.379504955868E+00
  2.408059015338E+00  2.436955723522E+00  2.466199192204E+00  2.495793582511E+00
  2.525743105501E+00  2.556052022767E+00  2.586724647040E+00  2.617765342805E+00
  2.649178526918E+00  2.680968669241E+00  2.713140293272E+00  2.745697976791E+00
  2.778646352513E+00  2.811990108743E+00  2.845733990048E+00  2.879882797929E+00
  2.914441391504E+00  2.949414688202E+00  2.984807664460E+00  3.020625356434E+00
  3.056872860711E+00  3.093555335040E+00  3.130677999060E+00  3.168246135049E+00
  3.206265088669E+00  3.244740269733E+00  3.283677152970E+00  3.323081278806E+00
  3.362958254151E+00  3.403313753201E+00  3.444153518240E+00  3.485483360459E+00
  3.527309160784E+00  3.569636870713E+00  3.612472513162E+00  3.655822183320E+00
  3.699692049520E+00  3.744088354114E+00  3.789017414363E+00  3.834485623336E+00
  3.880499450816E+00  3.927065444226E+00  3.974190229556E+00  4.021880512311E+00
  4.070143078459E+00  4.118984795400E+00  4.168412612945E+00  4.218433564300E+00
  4.269054767072E+00  4.320283424277E+00  4.372126825368E+00  4.424592347273E+00
  4.477687455440E+00  4.531419704905E+00  4.585796741364E+00  4.640826302260E+00
  4.696516217887E+00  4.752874412502E+00  4.809908905452E+00  4.867627812318E+00
  4.926039346065E+00  4.985151818218E+00  5.044973640037E+00  5.105513323717E+00
  5.166779483602E+00  5.228780837405E+00  5.291526207454E+00  5.355024521943E+00
  5.419284816207E+00  5.484316234001E+00  5.550128028809E+00  5.616729565155E+00
  5.684130319937E+00  5.752339883776E+00  5.821367962381E+00  5.891224377930E+00
  5.961919070465E+00  6.033462099311E+00  6.105863644502E+00  6.179134008236E+00
  6.253283616335E+00  6.328323019731E+00  6.404262895968E+00  6.481114050720E+00
  6.558887419328E+00  6.637594068360E+00  6.717245197181E+00  6.797852139547E+00
  6.879426365221E+00  6.961979481604E+00  7.045523235383E+00  7.130069514208E+00
  7.215630348378E+00  7.302217912559E+00  7.389844527509E+00  7.478522661840E+00
  7.568264933782E+00  7.659084112987E+00  7.750993122343E+00  7.844005039811E+00
  7.938133100289E+00  8.033390697492E+00  8.129791385862E+00  8.227348882492E+00
  8.326077069082E+00  8.425989993911E+00  8.527101873838E+00  8.629427096324E+00
  8.732980221480E+00  8.837775984138E+00  8.943829295948E+00  9.051155247499E+00
  9.159769110469E+00  9.269686339795E+00  9.380922575872E+00  9.493493646783E+00
  9.607415570544E+00  9.722704557391E+00  9.839377012079E+00  9.957449536224E+00
  1.007693893066E+01  1.019786219783E+01  1.032023654420E+01  1.044407938273E+01
  1.056940833532E+01  1.069624123535E+01  1.082459613017E+01  1.095449128373E+01
  1.108594517914E+01  1.121897652129E+01  1.135360423954E+01  1.148984749042E+01
  1.162772566030E+01  1.176725836823E+01  1.190846546865E+01  1.205136705427E+01
  1.219598345892E+01  1.234233526043E+01  1.249044328355E+01  1.264032860296E+01
  1.279201254619E+01  1.294551669675E+01  1.310086289711E+01  1.325807325187E+01
  1.341717013089E+01  1.357817617246E+01  1.374111428653E+01  1.390600765797E+01
  1.407287974987E+01  1.424175430687E+01  1.441265535855E+01  1.458560722285E+01
  1.476063450953E+01  1.493776212364E+01  1.511701526912E+01  1.529841945235E+01
  1.548200048578E+01  1.566778449161E+01  1.585579790551E+01  1.604606748038E+01
  1.623862029014E+01  1.643348373362E+01  1.663068553843E+01  1.683025376489E+01
  1.703221681007E+01  1.723660341179E+01  1.744344265273E+01  1.765276396456E+01
  1.786459713214E+01  1.807897229772E+01  1.829591996529E+01  1.851547100488E+01
  1.873765665694E+01  1.896250853682E+01  1.919005863926E+01  1.942033934293E+01
  1.965338341505E+01  1.988922401603E+01  2.012789470422E+01  2.036942944067E+01
  2.061386259396E+01  2.086122894509E+01  2.111156369243E+01  2.136490245674E+01
  2.162128128622E+01  2.188073666165E+01  2.214330550159E+01  2.240902516761E+01
  2.267793346962E+01  2.295006867126E+01  2.322546949531E+01  2.350417512926E+01
  2.378622523081E+01  2.407165993358E+01  2.436051985278E+01  2.465284609101E+01
  2.494868024411E+01  2.524806440704E+01  2.555104117992E+01  2.585765367408E+01
  2.616794551817E+01  2.648196086439E+01  2.679974439476E+01  2.712134132750E+01
  2.744679742343E+01  2.777615899251E+01  2.810947290042E+01  2.844678657522E+01
  2.878814801412E+01  2.913360579029E+01  2.948320905978E+01  2.983700756849E+01
  3.019505165932E+01  3.055739227923E+01  3.092408098658E+01  3.129516995842E+01
  3.167071199792E+01  3.205076054189E+01  3.243536966840E+01  3.282459410442E+01
  3.321848923367E+01  3.361711110447E+01  3.402051643773E+01  3.442876263498E+01
  3.484190778660E+01  3.526001068004E+01  3.568313080820E+01  3.611132837790E+01
  3.654466431843E+01  3.698320029026E+01  3.742699869374E+01  3.787612267806E+01
  3.833063615020E+01  3.879060378400E+01  3.925609102941E+01  3.972716412176E+01
  4.020389009122E+01  4.068633677232E+01  4.117457281359E+01  4.166866768735E+01
  4.216869169960E+01  4.267471599999E+01  4.318681259199E+01  4.370505434310E+01
  4.422951499521E+01
</grid-data>
</grid>
<valence-charge total-charge="11" is-unscreening-charge="yes"
 rescaled-to-z-pseudo="no">
<radfunc>
<data npts="457">
  4.250626658924E-02  4.263386660773E-02  4.301559642336E-02  4.365342248319E-02
  4.454223479020E-02  4.571449873272E-02  4.721441561347E-02  4.894005017577E-02
  5.089067641353E-02  5.317924251751E-02  5.577671053179E-02  5.862146811532E-02
  6.208942066550E-02  6.574631092926E-02  7.010613051906E-02  7.450992524905E-02
  7.964251261112E-02  8.456850969545E-02  9.017708105504E-02  9.656999573833E-02
  1.038658372179E-01  1.104449290428E-01  1.177716893472E-01  1.259388225694E-01
  1.350517875795E-01  1.452307139285E-01  1.566126150526E-01  1.660317963642E-01
  1.762893079278E-01  1.874671171009E-01  1.996559175842E-01  2.129560917961E-01
  2.274787720977E-01  2.433470077411E-01  2.606970438531E-01  2.796797177927E-01
  3.004619767184E-01  3.232285180238E-01  3.396085766457E-01  3.570265659936E-01
  3.755526760511E-01  3.952618468341E-01  4.162340430139E-01  4.385545339393E-01
  4.623141769493E-01  4.876097013499E-01  5.145439898348E-01  5.432263534422E-01
  5.737727953561E-01  6.063062579684E-01  6.409568466048E-01  6.778620221830E-01
  7.171667537927E-01  7.590236207689E-01  8.035928522596E-01  8.510422905617E-01
  9.015472626177E-01  9.552903420311E-01  1.012460981780E+00  1.073254995502E+00
  1.137873862823E+00  1.206523831720E+00  1.279414788439E+00  1.356758863044E+00
  1.438768736404E+00  1.525655612383E+00  1.617626817369E+00  1.665582089535E+00
  1.714882988225E+00  1.765553012612E+00  1.817614809447E+00  1.871090043761E+00
  1.925999261067E+00  1.982361740821E+00  2.040195340922E+00  2.099516333037E+00
  2.160339228598E+00  2.222676595327E+00  2.286538864202E+00  2.351934126838E+00
  2.418867923286E+00  2.487343020342E+00  2.557359180519E+00  2.628912921912E+00
  2.701997269287E+00  2.776601496812E+00  2.852710862967E+00  2.930306338277E+00
  3.009364326644E+00  3.089856381213E+00  3.171748915809E+00  3.255002913208E+00
  3.339573631606E+00  3.425410310889E+00  3.512455880461E+00  3.600646670589E+00
  3.689912129449E+00  3.780174548246E+00  3.871348797003E+00  3.963342073836E+00
  4.056053670747E+00  4.149374759185E+00  4.243188198815E+00  4.337368373161E+00
  4.431781055959E+00  4.526283312223E+00  4.620723438157E+00  4.714940944212E+00
  4.808766585587E+00  4.902022444602E+00  4.994522069295E+00  5.086070672592E+00
  5.176465396248E+00  5.265495643603E+00  5.352943484944E+00  5.438584138935E+00
  5.522186533171E+00  5.603513946462E+00  5.682324734820E+00  5.758373142527E+00
  5.831410198863E+00  5.901184700276E+00  5.967444276840E+00  6.029936540862E+00
  6.088410314433E+00  6.142616931608E+00  6.192311609718E+00  6.237254883116E+00
  6.277214091464E+00  6.311964913419E+00  6.341292935412E+00  6.364995244035E+00
  6.382882029481E+00  6.394778186473E+00  6.400524898202E+00  6.399981188050E+00
  6.393025423202E+00  6.379556753822E+00  6.359496471119E+00  6.332789267553E+00
  6.299404382463E+00  6.259336616661E+00  6.212607200006E+00  6.159264496574E+00
  6.099384532864E+00  6.033071335492E+00  5.960457065949E+00  5.881701941365E+00
  5.796993931688E+00  5.706548225343E+00  5.610606457289E+00  5.509435695368E+00
  5.403327183083E+00  5.292594839352E+00  5.177573518463E+00  5.058617036385E+00
  4.936095972822E+00  4.810395261896E+00  4.681911588137E+00  4.551050608551E+00
  4.418224025799E+00  4.283846541981E+00  4.148332726953E+00  4.012093839530E+00
  3.875534643965E+00  3.739050267753E+00  3.603023149660E+00  3.467820128898E+00
  3.333789727080E+00  3.201259674034E+00  3.070534726322E+00  2.941894823491E+00
  2.815593621411E+00  2.691857434811E+00  2.570884975209E+00  2.452849047026E+00
  2.337899516647E+00  2.226164285149E+00  2.117749222152E+00  2.012739141713E+00
  1.911199538382E+00  1.813178975602E+00  1.718709888186E+00  1.627809468054E+00
  1.540480562919E+00  1.456712600642E+00  1.376482526325E+00  1.299755746397E+00
  1.226487073305E+00  1.156621664944E+00  1.090095953243E+00  1.026838556887E+00
  9.667711738948E-01  9.098094494298E-01  8.558638153701E-01  8.048402983117E-01
  7.566412931264E-01  7.111662996345E-01  6.683126203556E-01  6.279760177024E-01
  5.900513293682E-01  5.544330410305E-01  5.210158158518E-01  4.896949805915E-01
  4.603669684661E-01  4.329297191870E-01  4.072830368804E-01  3.833289068431E-01
  3.609717723167E-01  3.401187726659E-01  3.206799445330E-01  3.025683877077E-01
  2.857003976048E-01  2.699955663819E-01  2.553768548607E-01  2.417706375356E-01
  2.291067230571E-01  2.173183526664E-01  2.063421791097E-01  1.961182285756E-01
  1.865898481539E-01  1.777036412026E-01  1.694093928239E-01  1.616599873961E-01
  1.544113198000E-01  1.476222016463E-01  1.412542633981E-01  1.352718532215E-01
  1.296419327743E-01  1.243339704756E-01  1.193198323131E-01  1.145736705634E-01
  1.100718107709E-01  1.057926374515E-01  1.017164790991E-01  9.782549315051E-02
  9.410355161565E-02  9.053612808266E-02  8.711018677995E-02  8.381407431562E-02
  8.063741463549E-02  7.757100765045E-02  7.460673189037E-02  7.173745145256E-02
  6.895692743036E-02  6.625973393488E-02  6.364117876084E-02  6.109722869556E-02
  5.862443942732E-02  5.621988997527E-02  5.388112153579E-02  5.160608061887E-02
  4.939306633187E-02  4.724068165567E-02  4.514778854967E-02  4.311346671584E-02
  4.113697584925E-02  3.921772120104E-02  3.735522228127E-02  3.554908453213E-02
  3.379897380697E-02  3.210459349743E-02  3.046566415916E-02  2.888190549577E-02
  2.735302057095E-02  2.587868212893E-02  2.445852091321E-02  2.309211588283E-02
  2.177898623235E-02  2.051858512748E-02  1.931029507079E-02  1.815342481237E-02
  1.704720771791E-02  1.599080150218E-02  1.498328923114E-02  1.402368148066E-02
  1.311091954426E-02  1.224387956990E-02  1.142137749468E-02  1.064217464771E-02
  9.904983887889E-03  9.208476143900E-03  8.551287226736E-03  7.932024790720E-03
  7.349275326822E-03  6.801611081764E-03  6.287596807616E-03  5.805796258739E-03
  5.354778365678E-03  4.933123028508E-03  4.539426484734E-03  4.172306218983E-03
  3.830405393028E-03  3.512396784993E-03  3.216986235864E-03  2.942915609466E-03
  2.688965279006E-03  2.453956158941E-03  2.236751305596E-03  2.036257113432E-03
  1.851424136489E-03  1.681247566174E-03  1.524767397482E-03  1.381068315943E-03
  1.249279337196E-03  1.128573230226E-03  1.018165753976E-03  9.173147354263E-04
  8.253190153778E-04  7.415172860734E-04  6.652868426623E-04  5.960422682749E-04
  5.332340702671E-04  4.763472830404E-04  4.249000507829E-04  3.784422015529E-04
  3.365538223575E-04  2.988438432899E-04  2.649486373833E-04  2.345306416254E-04
  2.072770035464E-04  1.828982569354E-04  1.611270295404E-04  1.417167850478E-04
  1.244406011927E-04  1.090899855089E-04  9.547372995577E-05  8.341680544712E-05
  7.275929713386E-05  6.335538114162E-05  5.507234332906E-05  4.778964049914E-05
  4.139800436103E-05  3.579858839936E-05  3.090215765956E-05  2.662832130312E-05
  2.290480762592E-05  1.966678106966E-05  1.685620059285E-05  1.442121860816E-05
  1.231561953930E-05  1.049829690704E-05  8.932767722586E-06  7.586722849148E-06
  6.431611891779E-06  5.442261091614E-06  4.596522634442E-06  3.874953735275E-06
  3.260523829702E-06  2.738348188726E-06  2.295446275377E-06  1.920523177515E-06
  1.603772480287E-06  1.336698982276E-06  1.111959709803E-06  9.232217424679E-07
  7.650354283124E-07  6.327216374131E-07  5.222717768294E-07  4.302593663195E-07
  3.537620519278E-07  2.902930123452E-07  2.377407899524E-07  1.943166538585E-07
  1.585086754065E-07  1.290417669763E-07  1.048430020732E-07  8.501159831389E-08
  6.879300481536E-08  5.555659150412E-08  4.477648995113E-08  3.601518350006E-08
  2.890948875676E-08  2.315861104990E-08  1.851399339588E-08  1.477071197270E-08
  1.176020131403E-08  9.344119576560E-09  7.409188519268E-09  5.862864474407E-09
  4.629715797752E-09  3.648399267262E-09  2.869142855747E-09  2.251655426663E-09
  1.763395375254E-09  1.378140231368E-09  1.074807915163E-09  8.364878404437E-10
  6.496465282347E-10  5.034779494967E-10  3.893735728588E-10  3.004911524328E-10
  2.314047430367E-10  1.778213566607E-10  1.363521467917E-10  1.043280898829E-10
  7.965188177829E-11  6.067923023032E-11  4.612394545383E-11  3.498224595251E-11
  2.647253861565E-11  1.998762782006E-11  1.505688155782E-11  1.131635356081E-11
  8.485246106519E-12  6.347413146396E-12  4.736859811884E-12  3.526402488280E-12
  2.618822097320E-12  1.939979164501E-12  1.433468625457E-12  1.056480086108E-12
  7.765994569493E-13  5.693438959451E-13  4.162665631199E-13  3.035031375251E-13
  2.206591781274E-13  1.155661518136E-13  8.336176403295E-14  8.840520166772E-15
  5.933573637957E-15  3.964609235412E-15  2.636978514046E-15  1.745867470425E-15
  1.150510192370E-15  7.546054277513E-16  4.925780775401E-16  3.199860730417E-16
  2.068534426039E-16  1.330591167126E-16  8.516299744152E-17  5.423199169756E-17
  3.435832985299E-17  2.165477476690E-17  1.357666848142E-17  8.466879273493E-18
  5.251902272523E-18  3.240000156088E-18  1.987834171850E-18  1.212811360498E-18
  7.357923275280E-19  4.438504939787E-19  2.661998575085E-19  1.587224769569E-19
  9.408015558700E-20  5.543138245496E-20  3.246236904690E-20  1.889469438343E-20
  1.092955897256E-20  6.282551212229E-21  3.588452123330E-21  2.036491172230E-21
  1.148229564882E-21  0.000000000000E+00  0.000000000000E+00  0.000000000000E+00
  0.000000000000E+00
</data>
</radfunc>
</valence-charge>
<pseudocore-charge matching-radius="0.873622002435"
 number-of-continuous-derivatives="4">
<annotation model-charge-form="Teter function with specified parameters" />
<radfunc>
<data npts="290">
  2.679037290184E+01  2.678882068918E+01  2.678418055253E+01  2.677643903941E+01
  2.676567532360E+01  2.675152153446E+01  2.673348163837E+01  2.671282290681E+01
  2.668959246408E+01  2.666249952775E+01  2.663195782623E+01  2.659875708783E+01
  2.655862652152E+01  2.651670776213E+01  2.646724995901E+01  2.641784831790E+01
  2.636095132921E+01  2.630700951754E+01  2.624635755290E+01  2.617817835830E+01
  2.610156010632E+01  2.603351021477E+01  2.595883838071E+01  2.587692131603E+01
  2.578708149265E+01  2.568858336661E+01  2.558062955148E+01  2.549294229149E+01
  2.539906261511E+01  2.529857815437E+01  2.519105291441E+01  2.507602652826E+01
  2.495301359642E+01  2.482150313568E+01  2.468095816540E+01  2.453081546379E+01
  2.437048553131E+01  2.419935280376E+01  2.407894719247E+01  2.395325980152E+01
  2.382208979813E+01  2.368523181887E+01  2.354247621087E+01  2.339360932166E+01
  2.323841384212E+01  2.307666920779E+01  2.290815206361E+01  2.273263679776E+01
  2.254989615033E+01  2.235970190286E+01  2.216182565510E+01  2.195603969529E+01
  2.174211797055E+01  2.151983716417E+01  2.128897788620E+01  2.104932598405E+01
  2.080067397956E+01  2.054282263842E+01  2.027558267782E+01  1.999877661728E+01
  1.971224077697E+01  1.941582742682E+01  1.910940708865E+01  1.879287099162E+01
  1.846613368011E+01  1.812913577055E+01  1.778184685148E+01  1.760434242610E+01
  1.742426851822E+01  1.724163084636E+01  1.705643753012E+01  1.686869919444E+01
  1.667842907497E+01  1.648564312456E+01  1.629036012042E+01  1.609260177184E+01
  1.589239282822E+01  1.568976118700E+01  1.548473800135E+01  1.527735778716E+01
  1.506765852895E+01  1.485568178447E+01  1.464147278741E+01  1.442508054783E+01
  1.420655794989E+01  1.398596184635E+01  1.376335314926E+01  1.353879691632E+01
  1.331236243243E+01  1.308412328559E+01  1.285415743674E+01  1.262254728265E+01
  1.238937971140E+01  1.215474614948E+01  1.191874259998E+01  1.168146967090E+01
  1.144303259294E+01  1.120354122590E+01  1.096311005284E+01  1.072185816115E+01
  1.047990920978E+01  1.023739138166E+01  9.994437320464E+00  9.751184050997E+00
  9.507772882161E+00  9.264349291845E+00  9.021062792860E+00  8.778066779149E+00
  8.535518351569E+00  8.293578122522E+00  8.052409998832E+00  7.812180942287E+00
  7.573060707356E+00  7.335221555672E+00  7.098837946982E+00  6.864086206344E+00
  6.631144167505E+00  6.400190792495E+00  6.171405767637E+00  5.944969076317E+00
  5.721060549036E+00  5.499859391427E+00  5.281543691148E+00  5.066289904720E+00
  4.854272325628E+00  4.645662535221E+00  4.440628838156E+00  4.239335684411E+00
  4.041943080101E+00  3.848605989599E+00  3.659473731727E+00  3.474689373004E+00
  3.294389121219E+00  3.118701722819E+00  2.947747867853E+00  2.781639606420E+00
  2.620479780782E+00  2.464361477498E+00  2.313367504079E+00  2.167569894818E+00
  2.027029450520E+00  1.891795316954E+00  1.761904606847E+00  1.637382070201E+00
  1.518239817674E+00  1.404477101588E+00  1.296080158959E+00  1.193022120669E+00
  1.095262990591E+00  1.002749698060E+00  9.154162266470E-01  8.331838216204E-01
  7.559612779098E-01  6.836453096738E-01  6.161210018545E-01  5.532623432796E-01
  4.949328400170E-01  4.409862067692E-01  3.912671331441E-01  3.456121206559E-01
  3.038503853094E-01  2.658048196222E-01  2.312930069482E-01  2.001282800120E-01
  1.721208146530E-01  1.470787489428E-01  1.248093170889E-01  1.051199868997E-01
  8.781958907926E-02  7.271942626255E-02  5.963434951721E-02  4.838379003648E-02
  3.879273395161E-02  3.069262860679E-02  2.392220927717E-02  1.832823617199E-02
  1.376613265053E-02  1.010051688070E-02  7.205620676424E-03  4.965590940579E-03
  3.274670991268E-03  2.037261026900E-03  1.167859053603E-03  5.908857123639E-04
  2.403985548310E-04  5.970337353015E-05  8.721392128613E-07  2.417887915706E-05
  9.746638991856E-05  1.954579634557E-04  2.990292684997E-04  3.944561281632E-04
  4.726541376797E-04  5.284258514543E-04  5.597306276954E-04  5.669911574825E-04
  5.524492441854E-04  5.195815754590E-04  4.725840958944E-04  4.159312108089E-04
  3.540135104690E-04  2.908550896070E-04  2.299089468274E-04  1.739264830476E-04
  1.248948767060E-04  8.403418910460E-05  5.184452764580E-05  2.819253341306E-05
  1.242590750977E-05  3.504668563482E-06  1.383358561860E-07  9.192248328362E-07
  4.443463104101E-06  9.413099270273E-06  1.471467676188E-05  1.947175807670E-05
  2.307098108376E-05  2.516317875681E-05  2.564277651908E-05  2.460999532696E-05
  2.232125800781E-05  1.913357832462E-05  1.544860098072E-05  1.166138905315E-05
  8.118092711675E-06  5.085380847771E-06  2.733100265784E-06  1.130182978630E-06
  2.524886565273E-07  1.710719274413E-10  2.213935012526E-07  7.388513998169E-07
  1.375610961409E-06  1.977213245326E-06  2.427755810909E-06  2.658641833626E-06
  2.649751482422E-06  2.423804943593E-06  2.035523195822E-06  1.557749769404E-06
  1.066912356353E-06  6.300639854271E-07  2.952870576928E-07  8.655301716543E-08
  3.322385155266E-09  0.000000000000E+00  0.000000000000E+00  0.000000000000E+00
  0.000000000000E+00  0.000000000000E+00  0.000000000000E+00  0.000000000000E+00
  0.000000000000E+00  0.000000000000E+00  0.000000000000E+00  0.000000000000E+00
  0.000000000000E+00  0.000000000000E+00  0.000000000000E+00  0.000000000000E+00
  0.000000000000E+00  0.000000000000E+00  0.000000000000E+00  0.000000000000E+00
  0.000000000000E+00  0.000000000000E+00  0.000000000000E+00  0.000000000000E+00
  0.000000000000E+00  0.000000000000E+00  0.000000000000E+00  0.000000000000E+00
  0.000000000000E+00  0.000000000000E+00  0.000000000000E+00  0.000000000000E+00
  0.000000000000E+00  0.000000000000E+00  0.000000000000E+00  0.000000000000E+00
  0.000000000000E+00  0.000000000000E+00  0.000000000000E+00  0.000000000000E+00
  0.000000000000E+00  0.000000000000E+00  0.000000000000E+00  0.000000000000E+00
  0.000000000000E+00  0.000000000000E+00
</data>
</radfunc>
</pseudocore-charge>
<semilocal-potentials set="scalar_relativistic">
<slps n="4" l="s" rc="1.60520203274">
<radfunc>
<data npts="290">
  5.416610015775E+01  5.412666597830E+01  5.400903230267E+01  5.381360511180E+01
  5.354359754292E+01  5.319154830336E+01  5.274770536477E+01  5.224601019948E+01
  5.169008061171E+01  5.105245227677E+01  5.034715270393E+01  4.959619817419E+01
  4.870967926399E+01  4.780751558458E+01  4.677317455429E+01  4.577111835316E+01
  4.465376028634E+01  4.362903720901E+01  4.251507139840E+01  4.130866593762E+01
  4.000749621423E+01  3.889744941562E+01  3.772586948691E+01  3.649328260478E+01
  3.520085781462E+01  3.385045466481E+01  3.244465875275E+01  3.135593656529E+01
  3.023959783457E+01  2.909755975101E+01  2.793196666280E+01  2.674517917031E+01
  2.553975938848E+01  2.431845248358E+01  2.308416470468E+01  2.183993824444E+01
  2.058892337115E+01  1.933434836965E+01  1.849760337672E+01  1.766170627013E+01
  1.682763051050E+01  1.599634368022E+01  1.516880325513E+01  1.434595248506E+01
  1.352871642264E+01  1.271799813714E+01  1.191467514781E+01  1.111959610722E+01
  1.033357776184E+01  9.557402212787E+00  8.791814495333E+00  8.037520491527E+00
  7.295185185655E+00  6.565431267877E+00  5.848838087144E+00  5.145940950351E+00
  4.457230760911E+00  3.783153986433E+00  3.124112942053E+00  2.480466373226E+00
  1.852530319469E+00  1.240579238570E+00  6.448473692872E-01  6.553030933366E-02
 -4.972132152964E-01 -1.043259414200E+00 -1.572517354349E+00 -1.830830756955E+00
 -2.084926764536E+00 -2.334802258603E+00 -2.580455747054E+00 -2.821887289290E+00
 -3.059098420814E+00 -3.292092077493E+00 -3.520872519662E+00 -3.745445256244E+00
 -3.965816969046E+00 -4.181995437426E+00 -4.393989463446E+00 -4.601808797730E+00
 -4.805464066115E+00 -5.004966697287E+00 -5.200328851533E+00 -5.391563350712E+00
 -5.578683609607E+00 -5.761703568741E+00 -5.940637628773E+00 -6.115500586549E+00
 -6.286307572899E+00 -6.453073992221E+00 -6.615815463902E+00 -6.774547765613E+00
 -6.929286778437E+00 -7.080048433932E+00 -7.226848662775E+00 -7.369703345825E+00
 -7.508628265696E+00 -7.643639061404E+00 -7.774751183399E+00 -7.901979850575E+00
 -8.025340008456E+00 -8.144846288589E+00 -8.260512969057E+00 -8.372353936007E+00
 -8.480382646146E+00 -8.584612090155E+00 -8.685054757039E+00 -8.781722599459E+00
 -8.874627000144E+00 -8.963778739560E+00 -9.049187965044E+00 -9.130864161712E+00
 -9.208816125488E+00 -9.283051938696E+00 -9.353578948691E+00 -9.420403750092E+00
 -9.483532171200E+00 -9.542969265260E+00 -9.598719307191E+00 -9.650785796509E+00
 -9.699171467070E+00 -9.743878304306E+00 -9.784907570553E+00 -9.822259839044E+00
 -9.855935037042E+00 -9.885932498519E+00 -9.912251026717E+00 -9.934888966798E+00
 -9.953844288734E+00 -9.969114680488E+00 -9.980697651515E+00 -9.988590646558E+00
 -9.992791169762E+00 -9.993296919213E+00 -9.990105932138E+00 -9.983216741221E+00
 -9.972628542807E+00 -9.958341378085E+00 -9.940356328834E+00 -9.918675729744E+00
 -9.893303399918E+00 -9.864244896689E+00 -9.831507795448E+00 -9.795101999754E+00
 -9.755040086463E+00 -9.711337691111E+00 -9.664013939109E+00 -9.613091928634E+00
 -9.558599271300E+00 -9.500568696746E+00 -9.439038727342E+00 -9.374054429023E+00
 -9.305668244053E+00 -9.233940911112E+00 -9.158942477426E+00 -9.080753406901E+00