<?xml version="1.0" encoding="UTF-8" ?>
<psml version="1.1" energy_unit="hartree" length_unit="bohr"
 uuid="ae3b1120-5145-11e8-6acf-6b72bdf60127"
 xmlns="http://esl.cecam.org/PSML/ns/1.1">
<provenance creator="ONCVPSP-3.3.0+psml-3.3.0-73 (fully-relativistic)"
 date="2018-05-06">
<annotation action="semilocal-pseudopotential-generation"
 action-cont="projectors-generation" />
<input-file name="oncvpsp-input">
<![CDATA[# atsym z nc nv iexc psfile
Sb 51 6 5 4 both
# n l f
1 0 2.0
2 0 2.0
2 1 6.0
3 0 2.0
3 1 6.0
3 2 10.0
4 0 2.0
4 1 6.0
4 2 10.0
5 0 2.0
5 1 3.0
# lmax
2
# l rc ep ncon nbas qcut
0 1.3 0.0 4 8 9.4
1 1.3 0.0 4 8 9.6
2 1.5 0.0 4 8 10.0
# lloc lpopt rc5 dvloc0
4 5 1.3 0.0
# l nproj debl
0 2 1.0
1 2 3.0
2 2 1.6
# icmod fcfact rcfact
3 5.0 1.5
# epsh1 epsh2 depsh
-12.0 12.0 0.02
# rlmax drl
6.0 0.01
 0
]]>
</input-file>
</provenance>
<pseudo-atom-spec atomic-label="Sb" atomic-number="51" z-pseudo="23"
 flavor="Hamann&apos;s oncvpsp" relativity="dirac" spin-dft="no"
 core-corrections="yes">
<annotation pseudo-energy="-240.722030435" />
<exchange-correlation>
<annotation oncvpsp-xc-code="4" oncvpsp-xc-type="GGA -- Perdew-Burke-Ernzerhof" />
<libxc-info number-of-functionals="2">
<functional name="Perdew, Burke &amp; Ernzerhof (GGA)" type="exchange" id="101" />
<functional name="Perdew, Burke &amp; Ernzerhof (GGA)" type="correlation"
 id="130" />
</libxc-info>
</exchange-correlation>
<valence-configuration total-valence-charge="23">
<shell n="4" l="s" occupation="2" />
<shell n="4" l="p" occupation="6" />
<shell n="4" l="d" occupation="10" />
<shell n="5" l="s" occupation="2" />
<shell n="5" l="p" occupation="3" />
</valence-configuration>
</pseudo-atom-spec>
<grid npts="457">
<annotation type="sampled from oncvpsp log grid"
 recipe="r(i:1..N) = r1*exp(a*(i-1)) + r=0; resampled"
 recipe-cont="r1: scale; a: step" scale="0.980392156863E-05"
 step="0.119285708653E-01" delta="0.500000000000E-02" rmax="43.9721684583" />
<grid-data>
  0.000000000000E+00  5.021204018428E-03  1.002946097687E-02  1.504579076758E-02
  2.027345795207E-02  2.543065629312E-02  3.077838077958E-02  3.594118822007E-02
  4.098057695047E-02  4.617247910357E-02  5.140528910190E-02  5.655251270478E-02
  6.221512900910E-02  6.763314664665E-02  7.265117934131E-02  7.804152433212E-02
  8.383180528246E-02  8.898388872515E-02  9.445260573801E-02  1.002574157919E-01
  1.064189742860E-01  1.116197688201E-01  1.170747310341E-01  1.227962823396E-01
  1.287974511941E-01  1.350919027679E-01  1.416939700613E-01  1.468564096257E-01
  1.522069361091E-01  1.577524022190E-01  1.634999103328E-01  1.694568215939E-01
  1.756307653396E-01  1.820296488724E-01  1.886616675873E-01  1.955353154683E-01
  2.026593959664E-01  2.100430332757E-01  2.151143122711E-01  2.203080322266E-01
  2.256271493567E-01  2.310746912507E-01  2.366537585963E-01  2.423675269438E-01
  2.482192485144E-01  2.542122540505E-01  2.603499547123E-01  2.666358440189E-01
  2.730734998369E-01  2.796665864169E-01  2.864188564794E-01  2.933341533502E-01
  3.004164131487E-01  3.076696670278E-01  3.150980434685E-01  3.227057706300E-01
  3.304971787561E-01  3.384767026400E-01  3.466488841485E-01  3.550183748074E-01
  3.635899384487E-01  3.723684539226E-01  3.813589178741E-01  3.905664475873E-01
  3.999962838978E-01  4.096537941763E-01  4.195444753829E-01  4.245790090875E-01
  4.296739571965E-01  4.348300446829E-01  4.400480052191E-01  4.453285812817E-01
  4.506725242571E-01  4.560805945481E-01  4.615535616827E-01  4.670922044229E-01
  4.726973108760E-01  4.783696786065E-01  4.841101147498E-01  4.899194361268E-01
  4.957984693603E-01  5.017480509926E-01  5.077690276045E-01  5.138622559358E-01
  5.200286030070E-01  5.262689462431E-01  5.325841735980E-01  5.389751836812E-01
  5.454428858854E-01  5.519882005160E-01  5.586120589222E-01  5.653154036293E-01
  5.720991884728E-01  5.789643787345E-01  5.859119512793E-01  5.929428946946E-01
  6.000582094310E-01  6.072589079442E-01  6.145460148395E-01  6.219205670176E-01
  6.293836138218E-01  6.369362171876E-01  6.445794517939E-01  6.523144052154E-01
  6.601421780780E-01  6.680638842149E-01  6.760806508255E-01  6.841936186354E-01
  6.924039420590E-01  7.007127893637E-01  7.091213428361E-01  7.176307989501E-01
  7.262423685375E-01  7.349572769600E-01  7.437767642835E-01  7.527020854549E-01
  7.617345104804E-01  7.708753246061E-01  7.801258285014E-01  7.894873384434E-01
  7.989611865048E-01  8.085487207428E-01  8.182513053917E-01  8.280703210564E-01
  8.380071649091E-01  8.480632508880E-01  8.582400098987E-01  8.685388900175E-01
  8.789613566977E-01  8.895088929780E-01  9.001829996938E-01  9.109851956901E-01
  9.219170180384E-01  9.329800222548E-01  9.441757825219E-01  9.555058919122E-01
  9.669719626151E-01  9.785756261665E-01  9.903185336805E-01  1.002202356085E+00
  1.014228784358E+00  1.026399529770E+00  1.038716324127E+00  1.051180920017E+00
  1.063795091057E+00  1.076560632150E+00  1.089479359735E+00  1.102553112052E+00
  1.115783749397E+00  1.129173154390E+00  1.142723232242E+00  1.156435911029E+00
  1.170313141962E+00  1.184356899665E+00  1.198569182461E+00  1.212952012651E+00
  1.227507436802E+00  1.242237526044E+00  1.257144376357E+00  1.272230108873E+00
  1.287496870179E+00  1.302946832621E+00  1.318582194613E+00  1.334405180948E+00
  1.350418043120E+00  1.366623059637E+00  1.383022536353E+00  1.399618806789E+00
  1.416414232470E+00  1.433411203260E+00  1.450612137699E+00  1.468019483352E+00
  1.485635717152E+00  1.503463345758E+00  1.521504905907E+00  1.539762964778E+00
  1.558240120355E+00  1.576939001799E+00  1.595862269821E+00  1.615012617059E+00
  1.634392768463E+00  1.654005481685E+00  1.673853547465E+00  1.693939790035E+00
  1.714267067515E+00  1.734838272325E+00  1.755656331593E+00  1.776724207572E+00
  1.798044898063E+00  1.819621436840E+00  1.841456894082E+00  1.863554376811E+00
  1.885917029333E+00  1.908548033685E+00  1.931450610089E+00  1.954628017410E+00
  1.978083553619E+00  2.001820556262E+00  2.025842402938E+00  2.050152511773E+00
  2.074754341914E+00  2.099651394017E+00  2.124847210745E+00  2.150345377274E+00
  2.176149521801E+00  2.202263316063E+00  2.228690475856E+00  2.255434761566E+00
  2.282499978705E+00  2.309889978449E+00  2.337608658191E+00  2.365659962089E+00
  2.394047881634E+00  2.422776456214E+00  2.451849773688E+00  2.481271970973E+00
  2.511047234624E+00  2.541179801440E+00  2.571673959057E+00  2.602534046566E+00
  2.633764455124E+00  2.665369628586E+00  2.697354064129E+00  2.729722312899E+00
  2.762478980653E+00  2.795628728421E+00  2.829176273162E+00  2.863126388440E+00
  2.897483905101E+00  2.932253711963E+00  2.967440756506E+00  3.003050045584E+00
  3.039086646131E+00  3.075555685885E+00  3.112462354115E+00  3.149811902365E+00
  3.187609645193E+00  3.225860960936E+00  3.264571292467E+00  3.303746147976E+00
  3.343391101752E+00  3.383511794973E+00  3.424113936513E+00  3.465203303751E+00
  3.506785743396E+00  3.548867172317E+00  3.591453578385E+00  3.634551021325E+00
  3.678165633581E+00  3.722303621184E+00  3.766971264638E+00  3.812174919814E+00
  3.857921018852E+00  3.904216071078E+00  3.951066663931E+00  3.998479463898E+00
  4.046461217465E+00  4.095018752074E+00  4.144158977099E+00  4.193888884824E+00
  4.244215551442E+00  4.295146138060E+00  4.346687891716E+00  4.398848146417E+00
  4.451634324174E+00  4.505053936064E+00  4.559114583297E+00  4.613823958296E+00
  4.669189845796E+00  4.725220123945E+00  4.781922765433E+00  4.839305838618E+00
  4.897377508681E+00  4.956146038786E+00  5.015619791251E+00  5.075807228746E+00
  5.136716915491E+00  5.198357518477E+00  5.260737808699E+00  5.323866662403E+00
  5.387753062352E+00  5.452406099100E+00  5.517834972289E+00  5.584048991957E+00
  5.651057579860E+00  5.718870270818E+00  5.787496714068E+00  5.856946674637E+00
  5.927230034733E+00  5.998356795150E+00  6.070337076691E+00  6.143181121612E+00
  6.216899295071E+00  6.291502086612E+00  6.367000111651E+00  6.443404112991E+00
  6.520724962347E+00  6.598973661895E+00  6.678161345838E+00  6.758299281988E+00
  6.839398873372E+00  6.921471659852E+00  7.004529319770E+00  7.088583671608E+00
  7.173646675667E+00  7.259730435775E+00  7.346847201004E+00  7.435009367416E+00
  7.524229479825E+00  7.614520233583E+00  7.705894476386E+00  7.798365210103E+00
  7.891945592624E+00  7.986648939736E+00  8.082488727012E+00  8.179478591737E+00
  8.277632334837E+00  8.376963922855E+00  8.477487489930E+00  8.579217339809E+00
  8.682167947887E+00  8.786353963261E+00  8.891790210820E+00  8.998491693350E+00
  9.106473593670E+00  9.215751276794E+00  9.326340292116E+00  9.438256375621E+00
  9.551515452129E+00  9.666133637554E+00  9.782127241205E+00  9.899512768099E+00
  1.001830692132E+01  1.013852660437E+01  1.026018892362E+01  1.038331119071E+01
  1.050791092500E+01  1.063400585610E+01  1.076161392637E+01  1.089075329349E+01
  1.102144233301E+01  1.115369964100E+01  1.128754403670E+01  1.142299456514E+01
  1.156007049992E+01  1.169879134592E+01  1.183917684207E+01  1.198124696417E+01
  1.212502192774E+01  1.227052219088E+01  1.241776845717E+01  1.256678167865E+01
  1.271758305880E+01  1.287019405550E+01  1.302463638417E+01  1.318093202078E+01
  1.333910320503E+01  1.349917244349E+01  1.366116251281E+01  1.382509646296E+01
  1.399099762052E+01  1.415888959197E+01  1.432879626707E+01  1.450074182227E+01
  1.467475072414E+01  1.485084773283E+01  1.502905790562E+01  1.520940660049E+01
  1.539191947970E+01  1.557662251345E+01  1.576354198362E+01  1.595270448742E+01
  1.614413694127E+01  1.633786658456E+01  1.653392098358E+01  1.673232803538E+01
  1.693311597181E+01  1.713631336347E+01  1.734194912383E+01  1.755005251332E+01
  1.776065314347E+01  1.797378098120E+01  1.818946635297E+01  1.840773994921E+01
  1.862863282860E+01  1.885217642254E+01  1.907840253961E+01  1.930734337009E+01
  1.953903149053E+01  1.977349986841E+01  2.001078186683E+01  2.025091124924E+01
  2.049392218423E+01  2.073984925044E+01  2.098872744144E+01  2.124059217074E+01
  2.149547927679E+01  2.175342502811E+01  2.201446612845E+01  2.227863972199E+01
  2.254598339865E+01  2.281653519944E+01  2.309033362183E+01  2.336741762529E+01
  2.364782663680E+01  2.393160055644E+01  2.421877976311E+01  2.450940512027E+01
  2.480351798172E+01  2.510116019750E+01  2.540237411987E+01  2.570720260930E+01
  2.601568904062E+01  2.632787730910E+01  2.664381183681E+01  2.696353757885E+01
  2.728710002980E+01  2.761454523016E+01  2.794591977292E+01  2.828127081020E+01
  2.862064605992E+01  2.896409381264E+01  2.931166293839E+01  2.966340289365E+01
  3.001936372837E+01  3.037959609311E+01  3.074415124623E+01  3.111308106119E+01
  3.148643803392E+01  3.186427529033E+01  3.224664659381E+01  3.263360635294E+01
  3.302520962917E+01  3.342151214472E+01  3.382257029046E+01  3.422844113394E+01
  3.463918242755E+01  3.505485261668E+01  3.547551084808E+01  3.590121697826E+01
  3.633203158200E+01  3.676801596098E+01  3.720923215251E+01  3.765574293834E+01
  3.810761185360E+01  3.856490319585E+01  3.902768203420E+01  3.949601421861E+01
  3.996996638923E+01  4.044960598590E+01  4.093500125773E+01  4.142622127283E+01
  4.192333592810E+01  4.242641595924E+01  4.293553295075E+01  4.345075934616E+01
  4.397216845831E+01
</grid-data>
</grid>
<valence-charge total-charge="23" is-unscreening-charge="yes"
 rescaled-to-z-pseudo="no">
<radfunc>
<data npts="457">
  7.271988742893E+00  7.277476530578E+00  7.293883553024E+00  7.321263454965E+00
  7.361455445002E+00  7.412766943449E+00  7.478208149213E+00  7.553206072091E+00
  7.637611815735E+00  7.736146496433E+00  7.847345205970E+00  7.968368976636E+00
  8.114850500545E+00  8.268085640982E+00  8.421414915324E+00  8.598334612481E+00
  8.802463776484E+00  8.996344697374E+00  9.214744637596E+00  9.460741665146E+00
  9.737789441567E+00  9.984369913612E+00  1.025548244130E+01  1.055352151678E+01
  1.088109950298E+01  1.124106118655E+01  1.163649750386E+01  1.195835973846E+01
  1.230356639398E+01  1.267371529971E+01  1.307049118679E+01  1.349566506513E+01
  1.395109207120E+01  1.443870739018E+01  1.496051978032E+01  1.551860214285E+01
  1.611507848469E+01  1.675210651658E+01  1.720039195779E+01  1.766830422370E+01
  1.815647495679E+01  1.866552254781E+01  1.919604605356E+01  1.974861824461E+01
  2.032377769956E+01  2.092201985971E+01  2.154378695648E+01  2.218945672404E+01
  2.285932981147E+01  2.355361581320E+01  2.427241784391E+01  2.501571559492E+01
  2.578334682477E+01  2.657498725666E+01  2.739012888239E+01  2.822805670498E+01
  2.908782399375E+01  2.996822617451E+01  3.086777353710E+01  3.178466301125E+01
  3.271674934236E+01  3.366151608937E+01  3.461604697012E+01  3.557699819198E+01
  3.654057252906E+01  3.750249603761E+01  3.845799843718E+01  3.893171153256E+01
  3.940179832264E+01  3.986751734366E+01  4.032809450533E+01  4.078272325665E+01
  4.123056490568E+01  4.167074910633E+01  4.210237452468E+01  4.252450969814E+01
  4.293619410007E+01  4.333643942292E+01  4.372423109220E+01  4.409853002337E+01
  4.445827463325E+01  4.480238311645E+01  4.512975599680E+01  4.543927896210E+01
  4.572982598962E+01  4.600026276785E+01  4.624945041817E+01  4.647624951826E+01
  4.667952442642E+01  4.685814790356E+01  4.701100602667E+01  4.713700338454E+01
  4.723506854311E+01  4.730415976407E+01  4.734327095693E+01  4.735143784032E+01
  4.732774428429E+01  4.727132880131E+01  4.718139114880E+01  4.705719900208E+01
  4.689809465187E+01  4.670350167630E+01  4.647293153322E+01  4.620599001455E+01
  4.590238350082E+01  4.556192495080E+01  4.518453955824E+01  4.477027000581E+01
  4.431928124435E+01  4.383186472533E+01  4.330844201406E+01  4.274956771250E+01
  4.215593162255E+01  4.152836008383E+01  4.086781642434E+01  4.017540046794E+01
  3.945234704936E+01  3.870002349545E+01  3.791992604049E+01  3.711367515411E+01
  3.628300977133E+01  3.542978042727E+01  3.455594131202E+01  3.366354127528E+01
  3.275471382523E+01  3.183166618041E+01  3.089666744878E+01  2.995203602239E+01
  2.900012629038E+01  2.804331478637E+01  2.708398589828E+01  2.612451727955E+01
  2.516726510969E+01  2.421454935895E+01  2.326863921693E+01  2.233173884708E+01
  2.140597362876E+01  2.049337704567E+01  1.959587837358E+01  1.871529131177E+01
  1.785330369169E+01  1.701146838250E+01  1.619119549757E+01  1.539374598815E+01
  1.462022669129E+01  1.387158687845E+01  1.314861633045E+01  1.245194494254E+01
  1.178204384281E+01  1.113922798627E+01  1.052366016769E+01  9.935356378674E+00
  9.374192417885E+00  8.839911649864E+00  8.332133795645E+00  7.850364629031E+00
  7.394006445052E+00  6.962369162016E+00  6.554681915480E+00  6.170105001144E+00
  5.807742023926E+00  5.466652111991E+00  5.145863325594E+00  4.844390589750E+00
  4.561255170984E+00  4.295491888146E+00  4.046156055419E+00  3.812329178457E+00
  3.593123894514E+00  3.387687927557E+00  3.195207058791E+00  3.014907090486E+00
  2.846054803185E+00  2.687957926775E+00  2.539963302480E+00  2.401451070176E+00
  2.271827480845E+00  2.150525258119E+00  2.037003578061E+00  1.930748009506E+00
  1.831270309773E+00  1.738108092286E+00  1.650824381914E+00  1.569007072982E+00
  1.492268303976E+00  1.420243761989E+00  1.352591928945E+00  1.288993280630E+00
  1.229149448524E+00  1.172782353517E+00  1.119633319628E+00  1.069462175056E+00
  1.022046347070E+00  9.771799566185E-01  9.346729178414E-01  8.943500471737E-01
  8.560501861746E-01  8.196253417704E-01  7.849398471539E-01  7.518695461713E-01
  7.203010036291E-01  6.901307435741E-01  6.612645172285E-01  6.336166019139E-01
  6.071091319572E-01  5.816714622602E-01  5.572395649192E-01  5.337554590128E-01
  5.111666734316E-01  4.894257424109E-01  4.684897332333E-01  4.483198054077E-01
  4.288808004913E-01  4.101408616065E-01  3.920710816079E-01  3.746451787842E-01
  3.578391989193E-01  3.416312424978E-01  3.260012158114E-01  3.109306047088E-01
  2.964022697262E-01  2.824002613408E-01  2.689096541016E-01  2.559163984126E-01
  2.434071887679E-01  2.313693472762E-01  2.197907213040E-01  2.086595942108E-01
  1.979646080518E-01  1.876946972682E-01  1.778390323917E-01  1.683869728432E-01
  1.593280279504E-01  1.506518253601E-01  1.423480860684E-01  1.344066053387E-01
  1.268172388270E-01  1.195698932805E-01  1.126545212213E-01  1.060611190731E-01
  9.977972823042E-02  9.380043861500E-02  8.811339430154E-02  8.270880083433E-02
  7.757693389688E-02  7.270814901902E-02  6.809289205415E-02  6.372171017643E-02
  5.958526318580E-02  5.567433491535E-02  5.197984458616E-02  4.849285795294E-02
  4.520459811296E-02  4.210645586637E-02  3.918999953165E-02  3.644698413465E-02
  3.386935990257E-02  3.144928000641E-02  2.917910750693E-02  2.705142146938E-02
  2.505902222230E-02  2.319493574523E-02  2.145241717865E-02  1.982495345827E-02
  1.830626508354E-02  1.689030703765E-02  1.557126888322E-02  1.434357406431E-02
  1.320187845080E-02  1.214106816637E-02  1.115625674551E-02  1.024278166851E-02
  9.396200326081E-03  8.612285467212E-03  7.887020185303E-03  7.216592497821E-03
  6.597389574797E-03  6.025991670595E-03  5.499165812040E-03  5.013859294174E-03
  4.567193032596E-03  4.156454818755E-03  3.779092521616E-03  3.432707276005E-03
  3.115046694630E-03  2.823998137413E-03  2.557582068305E-03  2.313945526347E-03
  2.091355734355E-03  1.888193865285E-03  1.702948983175E-03  1.534212172492E-03
  1.380670866850E-03  1.241103385355E-03  1.114373682339E-03  9.994263139824E-04
  8.952816232360E-04  8.010311426437E-04  7.158332130487E-04  6.389088148004E-04
  5.695376069194E-04  5.070541687410E-04  4.508444378226E-04  4.003423373480E-04
  3.550265858871E-04  3.144176821409E-04  2.780750572122E-04  2.455943869559E-04
  2.166050570754E-04  1.907677738133E-04  1.677723133153E-04  1.473354030197E-04
  1.291987287159E-04  1.131270612151E-04  9.890649687539E-05  8.634280651663E-05
  7.525988752868E-05  6.549831423779E-05  5.691398182539E-05  4.937683930636E-05
  4.276970726313E-05  3.698717620073E-05  3.193458153869E-05  2.752705139061E-05
  2.368862340314E-05  2.035142703788E-05  1.745492778211E-05  1.494522987259E-05
  1.277443421071E-05  1.090004824095E-05  9.284444657598E-06  7.894365899719E-06
  6.700471491371E-06  5.676925383855E-06  4.801020559746E-06  4.052838264475E-06
  3.414939340088E-06  2.872085247294E-06  2.410986475389E-06  2.020076154644E-06
  1.689306801507E-06  1.409968242968E-06  1.174524881806E-06  9.764705786633E-07
  8.101995392534E-07  6.708917049193E-07  5.544112516942E-07  4.572169065080E-07
  3.762828888032E-07  3.090293812485E-07  2.532615241985E-07  2.071160148425E-07
  1.690144734788E-07  1.376228159663E-07  1.118159431297E-07  9.064712475075E-08
  7.332151784415E-08  5.917331630648E-08  4.764608188325E-08  3.827585489351E-08
  3.067668747947E-08  2.452828251640E-08  1.956545794777E-08  1.556918942942E-08
  1.235901400653E-08  9.786604338587E-09  7.730346961513E-09  6.090779453957E-09
  4.786760376106E-09  3.752262680358E-09  2.933696154045E-09  2.287677531722E-09
  1.779178385639E-09  1.379990932184E-09  1.067460632423E-09  8.234420574212E-10
  6.334410634332E-10  4.859119964976E-10  3.716835279746E-10  2.834909093744E-10
  2.155960138481E-10  1.634795813921E-10  1.235926750599E-10  9.315654839541E-11
  7.000197482933E-11  5.244064629588E-11  3.916255326971E-11  2.915434885789E-11
  2.163460776770E-11  1.600264485426E-11  1.179818166185E-11  8.669663650237E-12
  6.349453408518E-12  4.634471258848E-12  3.371137119095E-12  2.443697228517E-12
  1.765205535935E-12  1.270579926080E-12  9.112744763741E-13  6.512059766361E-13
  4.636504772648E-13  3.288873524682E-13  2.324173179722E-13  1.636195241648E-13
  1.147432961946E-13  8.015397262870E-14  5.577094986451E-14  3.865055715588E-14
  2.667764047227E-14  1.833842195060E-14  1.255388317278E-14  8.558037792443E-15
  5.809362322693E-15  3.926618898637E-15  2.642546691498E-15  1.770588096842E-15
  1.181082971049E-15  7.843105001626E-16  5.184619385705E-16  3.411482394018E-16
  2.234306129327E-16  1.456434942502E-16  9.448517045844E-17  6.100077142563E-17
  3.919049631598E-17  2.505384053909E-17  1.593638662058E-17  1.008558725079E-17
  6.350119220426E-18  3.977452594152E-18  2.478239424987E-18  1.535921158057E-18
  9.467904836135E-19  5.804563653720E-19  3.539051620265E-19  2.050981476750E-19
  1.238135415557E-19  7.431478595022E-20  4.434553321456E-20  0.000000000000E+00
  0.000000000000E+00  0.000000000000E+00  0.000000000000E+00  0.000000000000E+00
  0.000000000000E+00  0.000000000000E+00  0.000000000000E+00  0.000000000000E+00
  0.000000000000E+00  0.000000000000E+00  0.000000000000E+00  0.000000000000E+00
  0.000000000000E+00  0.000000000000E+00  0.000000000000E+00  0.000000000000E+00
  0.000000000000E+00
</data>
</radfunc>
</valence-charge>
<pseudocore-charge matching-radius="0.520028603007"
 number-of-continuous-derivatives="4">
<annotation model-charge-form="Teter function with specified parameters" />
<radfunc>
<data npts="291">
  2.481122515641E+02  2.480797716460E+02  2.479826904154E+02  2.478207661431E+02
  2.475832614635E+02  2.472803762778E+02  2.468946158228E+02  2.464532482620E+02
  2.459574385246E+02  2.453798619624E+02  2.447296293624E+02  2.440238268359E+02
  2.431721528967E+02  2.422842201599E+02  2.413987825922E+02  2.403808461769E+02
  2.392112494168E+02  2.381051519065E+02  2.368646582935E+02  2.354742540296E+02
  2.339168522791E+02  2.325381455661E+02  2.310301776295E+02  2.293817929223E+02
  2.275810750628E+02  2.256153392311E+02  2.234711362256E+02  2.217373529848E+02
  2.198889597521E+02  2.179194931477E+02  2.158222968223E+02  2.135905450257E+02
  2.112172723722E+02  2.086954106537E+02  2.060178336077E+02  2.031774106097E+02
  2.001670702974E+02  1.969798751693E+02  1.947534967046E+02  1.924436085117E+02
  1.900483725211E+02  1.875660442101E+02  1.849949898557E+02  1.823337051584E+02
  1.795808352633E+02  1.767351961990E+02  1.737957977377E+02  1.707618676641E+02
  1.676328774203E+02  1.644085690719E+02  1.610889835125E+02  1.576744897931E+02
  1.541658154291E+02  1.505640774975E+02  1.468708142927E+02  1.430880172640E+02
  1.392181629003E+02  1.352642441762E+02  1.312298011088E+02  1.271189499114E+02
  1.229364101653E+02  1.186875293588E+02  1.143783040773E+02  1.100153970607E+02
  1.056061492773E+02  1.011585861128E+02  9.668141671715E+01  9.443463634836E+01
  9.218402552308E+01  8.993085996983E+01  8.767645492678E+01  8.542216404672E+01
  8.316937812535E+01  8.091952364579E+01  7.867406113275E+01  7.643448330988E+01
  7.420231305459E+01  7.197910114535E+01  6.976642379681E+01  6.756587997926E+01
  6.537908851974E+01  6.320768498296E+01  6.105331833156E+01  5.891764736642E+01
  5.680233694888E+01  5.470905400848E+01  5.263946334118E+01  5.059522320495E+01
  4.857798072099E+01  4.658936709139E+01  4.463099264531E+01  4.270444172849E+01
  4.081126745260E+01  3.895298632345E+01  3.713107276926E+01  3.534695359260E+01
  3.360200237167E+01  3.189753383947E+01  3.023479827109E+01  2.861497591201E+01
  2.703917148238E+01  2.550840879413E+01  2.402362551982E+01  2.258566815382E+01
  2.119528720763E+01  1.985313268276E+01  1.855974986492E+01  1.731557548443E+01
  1.612093428713E+01  1.497603606044E+01  1.388097315792E+01  1.283571856445E+01
  1.184012454248E+01  1.089392189694E+01  9.996719893456E+00  9.148006860884E+00
  8.347151504431E+00  7.593404950839E+00  6.885903541211E+00  6.223672380789E+00
  5.605629647688E+00  5.030591655678E+00  4.497278657185E+00  4.004321364833E+00
  3.550268160640E+00  3.133592952921E+00  2.752703631704E+00  2.405951064178E+00
  2.091638562586E+00  1.808031748176E+00  1.553368726524E+00  1.325870481874E+00
  1.123751391415E+00  9.452297546366E-01  7.885382284664E-01  6.519340558357E-01
  5.337089738581E-01  4.321986881302E-01  3.457918018542E-01  2.729380926688E-01
  2.121560363240E-01  1.620394846649E-01  1.212634157853E-01  8.858868659554E-02
  6.286573230201E-02  4.303717321746E-02  2.813930668328E-02  1.730248036693E-02
  9.750362450598E-03  4.798143833256E-03  1.849726973387E-03  3.939749142543E-04
  1.118439173276E-07  3.123827295953E-04  1.044093618622E-03  1.971165632602E-03
  2.925344060179E-03  3.787208906605E-03  4.479134500793E-03  4.958343113493E-03
  5.210190945311E-03  5.241814376453E-03  5.076250249973E-03  4.747126551751E-03
  4.293999661580E-03  3.758392022046E-03  3.180560363341E-03  2.597000382485E-03
  2.038669914747E-03  1.529890086092E-03  1.087863610979E-03  7.227321466962E-04
  4.380811685259E-04  2.317917671381E-04  9.713447177506E-05  2.400082216323E-05
  1.738505106888E-07  1.254853605527E-05  4.822705116968E-05  9.543039585809E-05
  1.441867962443E-04  1.867768720926E-04  2.179348477914E-04  2.348227981387E-04
  2.368099935397E-04  2.251009301234E-04  2.022629450185E-04  1.717070839373E-04
  1.371741132757E-04  1.022716144774E-04  7.009866193028E-05  4.298264792349E-05
  2.233956284489E-05  8.655748881415E-06  1.577085010384E-06  8.185266671200E-08
  2.707042383466E-06  7.795111186500E-06  1.372930041788E-05  1.913026145370E-05
  2.299420628531E-05  2.476207943732E-05  2.431911937913E-05  2.193337605609E-05
  1.814912384584E-05  1.365576803316E-05  9.154285667755E-06  5.241424486870E-06
  2.327229892059E-06  5.948112782877E-07  3.711763836811E-09  0.000000000000E+00
  0.000000000000E+00  0.000000000000E+00  0.000000000000E+00  0.000000000000E+00
  0.000000000000E+00  0.000000000000E+00  0.000000000000E+00  0.000000000000E+00
  0.000000000000E+00  0.000000000000E+00  0.000000000000E+00  0.000000000000E+00
  0.000000000000E+00  0.000000000000E+00  0.000000000000E+00  0.000000000000E+00
  0.000000000000E+00  0.000000000000E+00  0.000000000000E+00  0.000000000000E+00
  0.000000000000E+00  0.000000000000E+00  0.000000000000E+00  0.000000000000E+00
  0.000000000000E+00  0.000000000000E+00  0.000000000000E+00  0.000000000000E+00
  0.000000000000E+00  0.000000000000E+00  0.000000000000E+00  0.000000000000E+00
  0.000000000000E+00  0.000000000000E+00  0.000000000000E+00  0.000000000000E+00
  0.000000000000E+00  0.000000000000E+00  0.000000000000E+00  0.000000000000E+00
  0.000000000000E+00  0.000000000000E+00  0.000000000000E+00  0.000000000000E+00
  0.000000000000E+00  0.000000000000E+00  0.000000000000E+00  0.000000000000E+00
  0.000000000000E+00  0.000000000000E+00  0.000000000000E+00  0.000000000000E+00
  0.000000000000E+00  0.000000000000E+00  0.000000000000E+00  0.000000000000E+00
  0.000000000000E+00  0.000000000000E+00  0.000000000000E+00  0.000000000000E+00
  0.000000000000E+00  0.000000000000E+00  0.000000000000E+00  0.000000000000E+00
  0.000000000000E+00  0.000000000000E+00  0.000000000000E+00  0.000000000000E+00
  0.000000000000E+00  0.000000000000E+00  0.000000000000E+00  0.000000000000E+00
  0.000000000000E+00  0.000000000000E+00  0.000000000000E+00  0.000000000000E+00
  0.000000000000E+00  0.000000000000E+00  0.000000000000E+00
</data>
</radfunc>
</pseudocore-charge>
<semilocal-potentials set="scalar_relativistic">
<slps n="4" l="s" rc="1.30294683262">
<radfunc>
<data npts="291">
 -2.256419913031E+01 -2.256590820809E+01 -2.257101565038E+01 -2.257953145143E+01
 -2.259201526832E+01 -2.260792382537E+01 -2.262816610763E+01 -2.265129998606E+01
 -2.267725394023E+01 -2.270744351419E+01 -2.274137341829E+01 -2.277813436171E+01
 -2.282239784016E+01 -2.286843531643E+01 -2.291423134247E+01 -2.296674235013E+01
 -2.302689495993E+01 -2.308360320702E+01 -2.314699571687E+01 -2.321779071573E+01
 -2.329676529087E+01 -2.336639394178E+01 -2.344224554833E+01 -2.352479641645E+01
 -2.361454297178E+01 -2.371199896174E+01 -2.381769164703E+01 -2.390268864568E+01
 -2.399284727638E+01 -2.408839357543E+01 -2.418955029809E+01 -2.429653442203E+01
 -2.440955427615E+01 -2.452880626421E+01 -2.465447115386E+01 -2.478670990278E+01
 -2.492565899684E+01 -2.507142527816E+01 -2.517242707273E+01 -2.527650255137E+01
 -2.538365382118E+01 -2.549387297674E+01 -2.560714112489E+01 -2.572342736346E+01
 -2.584268771567E+01 -2.596486402178E+01 -2.608988279085E+01 -2.621765401530E+01
 -2.634806995220E+01 -2.648100387546E+01 -2.661630880401E+01 -2.675381621168E+01
 -2.689333472540E+01 -2.703464881893E+01 -2.717751751059E+01 -2.732167307404E+01
 -2.746681977226E+01 -2.761263262615E+01 -2.775875622986E+01 -2.790480362677E+01
 -2.805035526061E+01 -2.819495801832E+01 -2.833812438204E+01 -2.847933170971E+01
 -2.861802166492E+01 -2.875359981856E+01 -2.888543544635E+01 -2.894974278700E+01
 -2.901286154804E+01 -2.907470273023E+01 -2.913517511551E+01 -2.919418529108E+01
 -2.925163767840E+01 -2.930743456757E+01 -2.936147615717E+01 -2.941366059987E+01
 -2.946388405408E+01 -2.951204074181E+01 -2.955802301300E+01 -2.960172141663E+01
 -2.964302477866E+01 -2.968182028718E+01 -2.971799358487E+01 -2.975142886903E+01
 -2.978200899924E+01 -2.980961561291E+01 -2.983412924880E+01 -2.985542947858E+01
 -2.987339504655E+01 -2.988790401753E+01 -2.989883393287E+01 -2.990606197471E+01
 -2.990946513812E+01 -2.990892041124E+01 -2.990430496307E+01 -2.989549633876E+01
 -2.988237266198E+01 -2.986481284402E+01 -2.984269679929E+01 -2.981590566648E+01
 -2.978432203498E+01 -2.974783017574E+01 -2.970631627595E+01 -2.965966867668E+01
 -2.960777811254E+01 -2.955053795259E+01 -2.948784444138E+01 -2.941959693921E+01
 -2.934569816058E+01 -2.926605440987E+01 -2.918057581329E+01 -2.908917654622E+01
 -2.899177505531E+01 -2.888829427458E+01 -2.877866183540E+01 -2.866281027007E+01
 -2.854067720947E+01 -2.841220557529E+01 -2.827734376842E+01 -2.813604585445E+01
 -2.798827175062E+01 -2.783398741501E+01 -2.767316504493E+01 -2.750578328815E+01
 -2.733182747458E+01 -2.715128987634E+01 -2.696417000614E+01 -2.677047496569E+01
 -2.657021985803E+01 -2.636342828004E+01 -2.615013291410E+01 -2.593037624066E+01
 -2.570421139704E+01 -2.547170321116E+01 -2.523292944291E+01 -2.498798226993E+01
 -2.473697005924E+01 -2.448001947042E+01 -2.421727794107E+01 -2.394891660932E+01
 -2.367513373271E+01 -2.339615866595E+01 -2.311225646233E+01 -2.282373316430E+01
 -2.253094184685E+01 -2.223428947227E+01 -2.193424460564E+01 -2.163134602578E+01
 -2.132621224515E+01 -2.101955192286E+01 -2.071217511703E+01 -2.040500527386E+01