<?xml version="1.0" encoding="UTF-8" ?>
<psml version="1.1" energy_unit="hartree" length_unit="bohr"
 uuid="100d1be0-4715-11e8-5a7a-164f6cdd9476"
 xmlns="http://esl.cecam.org/PSML/ns/1.1">
<provenance creator="ONCVPSP-3.3.0+psml-3.3.0-73 (fully-relativistic)"
 date="2018-04-23">
<annotation action="semilocal-pseudopotential-generation"
 action-cont="projectors-generation" />
<input-file name="oncvpsp-input">
<![CDATA[# atsym z nc nv iexc psfile
Sb 51 8 3 4 both
# n l f
1 0 2.0
2 0 2.0
2 1 6.0
3 0 2.0
3 1 6.0
3 2 10.0
4 0 2.0
4 1 6.0
4 2 10.0
5 0 2.0
5 1 3.0
# lmax
2
# l rc ep ncon nbas qcut
0 2.0 0.0 4 7 3.2
1 2.1 0.0 4 7 4.6
2 1.8 0.0 4 7 9.2
# lloc lpopt rc5 dvloc0
4 5 1.6 0.0
# l nproj debl
0 2 1.0
1 2 3.0
2 2 1.6
# icmod fcfact
3 5 1.41
# epsh1 epsh2 depsh
-12.0 12.0 0.02
# rlmax drl
6.0 0.01
 0
]]>
</input-file>
</provenance>
<pseudo-atom-spec atomic-label="Sb" atomic-number="51" z-pseudo="15"
 flavor="Hamann&apos;s oncvpsp" relativity="dirac" spin-dft="no"
 core-corrections="yes">
<annotation pseudo-energy="-80.1804910682" />
<exchange-correlation>
<annotation oncvpsp-xc-code="4" oncvpsp-xc-type="GGA -- Perdew-Burke-Ernzerhof" />
<libxc-info number-of-functionals="2">
<functional name="Perdew, Burke &amp; Ernzerhof (GGA)" type="exchange" id="101" />
<functional name="Perdew, Burke &amp; Ernzerhof (GGA)" type="correlation"
 id="130" />
</libxc-info>
</exchange-correlation>
<valence-configuration total-valence-charge="15">
<shell n="4" l="d" occupation="10" />
<shell n="5" l="s" occupation="2" />
<shell n="5" l="p" occupation="3" />
</valence-configuration>
</pseudo-atom-spec>
<grid npts="457">
<annotation type="sampled from oncvpsp log grid"
 recipe="r(i:1..N) = r1*exp(a*(i-1)) + r=0; resampled"
 recipe-cont="r1: scale; a: step" scale="0.980392156863E-05"
 step="0.119285708653E-01" delta="0.500000000000E-02" rmax="43.9721684583" />
<grid-data>
  0.000000000000E+00  5.021204018428E-03  1.002946097687E-02  1.504579076758E-02
  2.027345795207E-02  2.543065629312E-02  3.077838077958E-02  3.594118822007E-02
  4.098057695047E-02  4.617247910357E-02  5.140528910190E-02  5.655251270478E-02
  6.221512900910E-02  6.763314664665E-02  7.265117934131E-02  7.804152433212E-02
  8.383180528246E-02  8.898388872515E-02  9.445260573801E-02  1.002574157919E-01
  1.064189742860E-01  1.116197688201E-01  1.170747310341E-01  1.227962823396E-01
  1.287974511941E-01  1.350919027679E-01  1.416939700613E-01  1.468564096257E-01
  1.522069361091E-01  1.577524022190E-01  1.634999103328E-01  1.694568215939E-01
  1.756307653396E-01  1.820296488724E-01  1.886616675873E-01  1.955353154683E-01
  2.026593959664E-01  2.100430332757E-01  2.151143122711E-01  2.203080322266E-01
  2.256271493567E-01  2.310746912507E-01  2.366537585963E-01  2.423675269438E-01
  2.482192485144E-01  2.542122540505E-01  2.603499547123E-01  2.666358440189E-01
  2.730734998369E-01  2.796665864169E-01  2.864188564794E-01  2.933341533502E-01
  3.004164131487E-01  3.076696670278E-01  3.150980434685E-01  3.227057706300E-01
  3.304971787561E-01  3.384767026400E-01  3.466488841485E-01  3.550183748074E-01
  3.635899384487E-01  3.723684539226E-01  3.813589178741E-01  3.905664475873E-01
  3.999962838978E-01  4.096537941763E-01  4.195444753829E-01  4.245790090875E-01
  4.296739571965E-01  4.348300446829E-01  4.400480052191E-01  4.453285812817E-01
  4.506725242571E-01  4.560805945481E-01  4.615535616827E-01  4.670922044229E-01
  4.726973108760E-01  4.783696786065E-01  4.841101147498E-01  4.899194361268E-01
  4.957984693603E-01  5.017480509926E-01  5.077690276045E-01  5.138622559358E-01
  5.200286030070E-01  5.262689462431E-01  5.325841735980E-01  5.389751836812E-01
  5.454428858854E-01  5.519882005160E-01  5.586120589222E-01  5.653154036293E-01
  5.720991884728E-01  5.789643787345E-01  5.859119512793E-01  5.929428946946E-01
  6.000582094310E-01  6.072589079442E-01  6.145460148395E-01  6.219205670176E-01
  6.293836138218E-01  6.369362171876E-01  6.445794517939E-01  6.523144052154E-01
  6.601421780780E-01  6.680638842149E-01  6.760806508255E-01  6.841936186354E-01
  6.924039420590E-01  7.007127893637E-01  7.091213428361E-01  7.176307989501E-01
  7.262423685375E-01  7.349572769600E-01  7.437767642835E-01  7.527020854549E-01
  7.617345104804E-01  7.708753246061E-01  7.801258285014E-01  7.894873384434E-01
  7.989611865048E-01  8.085487207428E-01  8.182513053917E-01  8.280703210564E-01
  8.380071649091E-01  8.480632508880E-01  8.582400098987E-01  8.685388900175E-01
  8.789613566977E-01  8.895088929780E-01  9.001829996938E-01  9.109851956901E-01
  9.219170180384E-01  9.329800222548E-01  9.441757825219E-01  9.555058919122E-01
  9.669719626151E-01  9.785756261665E-01  9.903185336805E-01  1.002202356085E+00
  1.014228784358E+00  1.026399529770E+00  1.038716324127E+00  1.051180920017E+00
  1.063795091057E+00  1.076560632150E+00  1.089479359735E+00  1.102553112052E+00
  1.115783749397E+00  1.129173154390E+00  1.142723232242E+00  1.156435911029E+00
  1.170313141962E+00  1.184356899665E+00  1.198569182461E+00  1.212952012651E+00
  1.227507436802E+00  1.242237526044E+00  1.257144376357E+00  1.272230108873E+00
  1.287496870179E+00  1.302946832621E+00  1.318582194613E+00  1.334405180948E+00
  1.350418043120E+00  1.366623059637E+00  1.383022536353E+00  1.399618806789E+00
  1.416414232470E+00  1.433411203260E+00  1.450612137699E+00  1.468019483352E+00
  1.485635717152E+00  1.503463345758E+00  1.521504905907E+00  1.539762964778E+00
  1.558240120355E+00  1.576939001799E+00  1.595862269821E+00  1.615012617059E+00
  1.634392768463E+00  1.654005481685E+00  1.673853547465E+00  1.693939790035E+00
  1.714267067515E+00  1.734838272325E+00  1.755656331593E+00  1.776724207572E+00
  1.798044898063E+00  1.819621436840E+00  1.841456894082E+00  1.863554376811E+00
  1.885917029333E+00  1.908548033685E+00  1.931450610089E+00  1.954628017410E+00
  1.978083553619E+00  2.001820556262E+00  2.025842402938E+00  2.050152511773E+00
  2.074754341914E+00  2.099651394017E+00  2.124847210745E+00  2.150345377274E+00
  2.176149521801E+00  2.202263316063E+00  2.228690475856E+00  2.255434761566E+00
  2.282499978705E+00  2.309889978449E+00  2.337608658191E+00  2.365659962089E+00
  2.394047881634E+00  2.422776456214E+00  2.451849773688E+00  2.481271970973E+00
  2.511047234624E+00  2.541179801440E+00  2.571673959057E+00  2.602534046566E+00
  2.633764455124E+00  2.665369628586E+00  2.697354064129E+00  2.729722312899E+00
  2.762478980653E+00  2.795628728421E+00  2.829176273162E+00  2.863126388440E+00
  2.897483905101E+00  2.932253711963E+00  2.967440756506E+00  3.003050045584E+00
  3.039086646131E+00  3.075555685885E+00  3.112462354115E+00  3.149811902365E+00
  3.187609645193E+00  3.225860960936E+00  3.264571292467E+00  3.303746147976E+00
  3.343391101752E+00  3.383511794973E+00  3.424113936513E+00  3.465203303751E+00
  3.506785743396E+00  3.548867172317E+00  3.591453578385E+00  3.634551021325E+00
  3.678165633581E+00  3.722303621184E+00  3.766971264638E+00  3.812174919814E+00
  3.857921018852E+00  3.904216071078E+00  3.951066663931E+00  3.998479463898E+00
  4.046461217465E+00  4.095018752074E+00  4.144158977099E+00  4.193888884824E+00
  4.244215551442E+00  4.295146138060E+00  4.346687891716E+00  4.398848146417E+00
  4.451634324174E+00  4.505053936064E+00  4.559114583297E+00  4.613823958296E+00
  4.669189845796E+00  4.725220123945E+00  4.781922765433E+00  4.839305838618E+00
  4.897377508681E+00  4.956146038786E+00  5.015619791251E+00  5.075807228746E+00
  5.136716915491E+00  5.198357518477E+00  5.260737808699E+00  5.323866662403E+00
  5.387753062352E+00  5.452406099100E+00  5.517834972289E+00  5.584048991957E+00
  5.651057579860E+00  5.718870270818E+00  5.787496714068E+00  5.856946674637E+00
  5.927230034733E+00  5.998356795150E+00  6.070337076691E+00  6.143181121612E+00
  6.216899295071E+00  6.291502086612E+00  6.367000111651E+00  6.443404112991E+00
  6.520724962347E+00  6.598973661895E+00  6.678161345838E+00  6.758299281988E+00
  6.839398873372E+00  6.921471659852E+00  7.004529319770E+00  7.088583671608E+00
  7.173646675667E+00  7.259730435775E+00  7.346847201004E+00  7.435009367416E+00
  7.524229479825E+00  7.614520233583E+00  7.705894476386E+00  7.798365210103E+00
  7.891945592624E+00  7.986648939736E+00  8.082488727012E+00  8.179478591737E+00
  8.277632334837E+00  8.376963922855E+00  8.477487489930E+00  8.579217339809E+00
  8.682167947887E+00  8.786353963261E+00  8.891790210820E+00  8.998491693350E+00
  9.106473593670E+00  9.215751276794E+00  9.326340292116E+00  9.438256375621E+00
  9.551515452129E+00  9.666133637554E+00  9.782127241205E+00  9.899512768099E+00
  1.001830692132E+01  1.013852660437E+01  1.026018892362E+01  1.038331119071E+01
  1.050791092500E+01  1.063400585610E+01  1.076161392637E+01  1.089075329349E+01
  1.102144233301E+01  1.115369964100E+01  1.128754403670E+01  1.142299456514E+01
  1.156007049992E+01  1.169879134592E+01  1.183917684207E+01  1.198124696417E+01
  1.212502192774E+01  1.227052219088E+01  1.241776845717E+01  1.256678167865E+01
  1.271758305880E+01  1.287019405550E+01  1.302463638417E+01  1.318093202078E+01
  1.333910320503E+01  1.349917244349E+01  1.366116251281E+01  1.382509646296E+01
  1.399099762052E+01  1.415888959197E+01  1.432879626707E+01  1.450074182227E+01
  1.467475072414E+01  1.485084773283E+01  1.502905790562E+01  1.520940660049E+01
  1.539191947970E+01  1.557662251345E+01  1.576354198362E+01  1.595270448742E+01
  1.614413694127E+01  1.633786658456E+01  1.653392098358E+01  1.673232803538E+01
  1.693311597181E+01  1.713631336347E+01  1.734194912383E+01  1.755005251332E+01
  1.776065314347E+01  1.797378098120E+01  1.818946635297E+01  1.840773994921E+01
  1.862863282860E+01  1.885217642254E+01  1.907840253961E+01  1.930734337009E+01
  1.953903149053E+01  1.977349986841E+01  2.001078186683E+01  2.025091124924E+01
  2.049392218423E+01  2.073984925044E+01  2.098872744144E+01  2.124059217074E+01
  2.149547927679E+01  2.175342502811E+01  2.201446612845E+01  2.227863972199E+01
  2.254598339865E+01  2.281653519944E+01  2.309033362183E+01  2.336741762529E+01
  2.364782663680E+01  2.393160055644E+01  2.421877976311E+01  2.450940512027E+01
  2.480351798172E+01  2.510116019750E+01  2.540237411987E+01  2.570720260930E+01
  2.601568904062E+01  2.632787730910E+01  2.664381183681E+01  2.696353757885E+01
  2.728710002980E+01  2.761454523016E+01  2.794591977292E+01  2.828127081020E+01
  2.862064605992E+01  2.896409381264E+01  2.931166293839E+01  2.966340289365E+01
  3.001936372837E+01  3.037959609311E+01  3.074415124623E+01  3.111308106119E+01
  3.148643803392E+01  3.186427529033E+01  3.224664659381E+01  3.263360635294E+01
  3.302520962917E+01  3.342151214472E+01  3.382257029046E+01  3.422844113394E+01
  3.463918242755E+01  3.505485261668E+01  3.547551084808E+01  3.590121697826E+01
  3.633203158200E+01  3.676801596098E+01  3.720923215251E+01  3.765574293834E+01
  3.810761185360E+01  3.856490319585E+01  3.902768203420E+01  3.949601421861E+01
  3.996996638923E+01  4.044960598590E+01  4.093500125773E+01  4.142622127283E+01
  4.192333592810E+01  4.242641595924E+01  4.293553295075E+01  4.345075934616E+01
  4.397216845831E+01
</grid-data>
</grid>
<valence-charge total-charge="15" is-unscreening-charge="yes"
 rescaled-to-z-pseudo="no">
<radfunc>
<data npts="457">
  7.339900050887E-03  7.344887294398E-03  7.363579371907E-03  7.407381784696E-03
  7.500199156439E-03  7.667886314139E-03  7.961559875756E-03  8.407744148333E-03
  9.049344428542E-03  9.984273392674E-03  1.127861421449E-02  1.297388715561E-02
  1.542258060127E-02  1.844577125863E-02  2.193947807488E-02  2.654835012167E-02
  3.262800650390E-02  3.915102705720E-02  4.736355334202E-02  5.769900832156E-02
  7.069932526633E-02  8.346750133278E-02  9.879198217818E-02  1.171739377889E-01
  1.392088175651E-01  1.656027349737E-01  1.971912467279E-01  2.248786110596E-01
  2.565186668221E-01  2.926524755003E-01  3.338894790615E-01  3.809147790177E-01
  4.344968543858E-01  4.954956519849E-01  5.648709488284E-01  6.436908443923E-01
  7.331401889276E-01  8.345286913484E-01  9.094603550889E-01  9.907976456500E-01
  1.079029962327E+00  1.174675316417E+00  1.278280620574E+00  1.390421715322E+00
  1.511703080213E+00  1.642757171030E+00  1.784243318015E+00  1.936846113544E+00
  2.101273211044E+00  2.278252450396E+00  2.468528218812E+00  2.672856950425E+00
  2.892001662927E+00  3.126725425807E+00  3.377783652602E+00  3.645915109426E+00
  3.931831534647E+00  4.236205770337E+00  4.559658315966E+00  4.902742229378E+00
  5.265926320302E+00  5.649576608377E+00  6.053936051828E+00  6.479102595455E+00
  6.925005638282E+00  7.391381082877E+00  7.877745200537E+00  8.128205157617E+00
  8.383367629517E+00  8.643098278189E+00  8.907243917265E+00  9.175631666406E+00
  9.448068121628E+00  9.724338547693E+00  1.000420609913E+01  1.028741107697E+01
  1.057367022870E+01  1.086267609965E+01  1.115409644402E+01  1.144757370497E+01
  1.174272457281E+01  1.203913963135E+01  1.233638310253E+01  1.263399269989E+01
  1.293147960160E+01  1.322832855409E+01  1.352399811730E+01  1.381792106278E+01
  1.410950493543E+01  1.439813279008E+01  1.468316411310E+01  1.496393593928E+01
  1.523976417347E+01  1.550994512558E+01  1.577375726675E+01  1.603046321338E+01
  1.627931194427E+01  1.651954125465E+01  1.675038044939E+01  1.697105327523E+01
  1.718078109034E+01  1.737878626668E+01  1.756429581832E+01  1.773654524605E+01
  1.789478258575E+01  1.803827264468E+01  1.816630140679E+01  1.827818058485E+01
  1.837325229336E+01  1.845089381320E+01  1.851052241506E+01  1.855160020553E+01
  1.857363895614E+01  1.857620487270E+01  1.855892325906E+01  1.852148302697E+01
  1.846364100128E+01  1.838522596810E+01  1.828614241184E+01  1.816637388676E+01
  1.802598596842E+01  1.786512873106E+01  1.768403869870E+01  1.748304021990E+01
  1.726254621970E+01  1.702305828632E+01  1.676516605559E+01  1.648954586227E+01
  1.619695863460E+01  1.588824701662E+01  1.556433171166E+01  1.522620705016E+01
  1.487493579561E+01  1.451164321297E+01  1.413751043547E+01  1.375376717718E+01
  1.336168384984E+01  1.296256315407E+01  1.255773122518E+01  1.214852842415E+01
  1.173629987282E+01  1.132238584008E+01  1.090811209194E+01  1.049478032240E+01
  1.008365878474E+01  9.675973242833E+00  9.272898360131E+00  8.875549639925E+00
  8.484976023574E+00  8.102153244796E+00  7.727978027023E+00  7.363263197895E+00
  7.008733780297E+00  6.665024103239E+00  6.332675958737E+00  6.012137813056E+00
  5.703765062603E+00  5.407821307010E+00  5.124480594778E+00  4.853830580900E+00
  4.595876521422E+00  4.350546017361E+00  4.117694410067E+00  3.897110722238E+00
  3.688524033479E+00  3.491610176635E+00  3.305998641059E+00  3.131279571385E+00
  2.967010755054E+00  2.812724498501E+00  2.667934300260E+00  2.532141238840E+00
  2.404840003811E+00  2.285524509594E+00  2.173693042732E+00  2.068852904586E+00
  1.970524522127E+00  1.878245009698E+00  1.791571174020E+00  1.710081963348E+00
  1.633380369432E+00  1.561094797831E+00  1.492879928212E+00  1.428417091573E+00
  1.367414196158E+00  1.309605237925E+00  1.254749434917E+00  1.202630027854E+00
  1.153052791692E+00  1.105844304794E+00  1.060849547236E+00  1.017927630322E+00
  9.769469813943E-01  9.377848451804E-01  9.003266834225E-01  8.644656381885E-01
  8.301020271392E-01  7.971428906847E-01  7.655016869143E-01  7.350983879139E-01
  7.058598039232E-01  6.777194283181E-01  6.506170597866E-01  6.244984655519E-01
  5.993145519694E-01  5.750203003166E-01  5.515743393337E-01  5.289388015083E-01
  5.070789818973E-01  4.859630850016E-01  4.655619709323E-01  4.458489148960E-01
  4.267993792384E-01  4.083907982998E-01  3.906023762309E-01  3.734148978038E-01
  3.568105521543E-01  3.407727693047E-01  3.252860692401E-01  3.103359232416E-01
  2.959086271245E-01  2.819911859777E-01  2.685712099596E-01  2.556368206708E-01
  2.431765675965E-01  2.311793540978E-01  2.196343723712E-01  2.085310468944E-01
  1.978589857303E-01  1.876079391613E-01  1.777677650975E-01  1.683284007069E-01
  1.592798397350E-01  1.506121149918E-01  1.423152855009E-01  1.343794278286E-01
  1.267946311270E-01  1.195509954522E-01  1.126386329419E-01  1.060476714603E-01
  9.976826034539E-02  9.379057791912E-02  8.810484044645E-02  8.270131225432E-02
  7.757031674974E-02  7.270224809112E-02  6.808758330233E-02  6.371689463040E-02
  5.958086197782E-02  5.567028524190E-02  5.197609643703E-02  4.848937147070E-02
  4.520134146864E-02  4.210340355631E-02  3.918713101726E-02  3.644428275997E-02
  3.386681203654E-02  3.144687436603E-02  2.917683462561E-02  2.704927328137E-02
  2.505699173959E-02  2.319301680774E-02  2.145060426241E-02  1.982324152909E-02
  1.830464948631E-02  1.688878341337E-02  1.556983310747E-02  1.434222220221E-02
  1.320060672451E-02  1.213987293208E-02  1.115513447761E-02  1.024172894893E-02
  9.395213837451E-03  8.611361988813E-03  7.886156590833E-03  7.215785754458E-03
  6.596636743037E-03  6.025289904540E-03  5.498512359880E-03  5.013251498684E-03
  4.566628331532E-03  4.155930745070E-03  3.778606703438E-03  3.432257436358E-03
  3.114630650895E-03  2.823613800514E-03  2.557227441648E-03  2.313618704523E-03
  2.091054901614E-03  1.887917293825E-03  1.702695031245E-03  1.533979282348E-03
  1.380457562574E-03  1.240908270561E-03  1.114195437787E-03  9.992636951141E-04
  8.951334576492E-04  8.008963275225E-04  7.157107125615E-04  6.387976574774E-04
  5.694368830218E-04  5.069630276326E-04  4.507620853522E-04  4.002680332516E-04
  3.549596412175E-04  3.143574567327E-04  2.780209571874E-04  2.455458622770E-04
  2.165615991515E-04  1.907289131632E-04  1.677376172935E-04  1.473044736078E-04
  1.291712003844E-04  1.131025988570E-04  9.888479381624E-05  8.632358260103E-05
  7.524288728652E-05  6.548330513070E-05  5.690075257438E-05  4.936519830108E-05
  4.275948105248E-05  3.697820806457E-05  3.192673013971E-05  2.752018950507E-05
  2.368263672914E-05  2.034621307917E-05  1.745039480543E-05  1.494129593614E-05
  1.277102626134E-05  1.089710127720E-05  9.281900955930E-06  7.892174300880E-06
  6.698586743949E-06  5.675307541945E-06  4.799634431675E-06  4.051652909525E-06
  3.413927610189E-06  2.871223370719E-06  2.410253679541E-06  2.019454325114E-06
  1.688780174693E-06  1.409523129621E-06  1.174149419018E-06  9.761545079231E-07
  8.099340083128E-07  6.706690913574E-07  5.542250061888E-07  4.570614139578E-07
  3.761533455707E-07  3.089216869200E-07  2.531721863804E-07  2.070420656318E-07
  1.689533963570E-07  1.375724819754E-07  1.117745552911E-07  9.061316978188E-08
  7.329372432150E-08  5.915061850424E-08  4.762758859703E-08  3.826082262989E-08
  3.066449745870E-08  2.451842099639E-08  1.955749943293E-08  1.556278237851E-08
  1.235386869906E-08  9.782482600879E-09  7.727053490085E-09  6.088154507468E-09
  4.784673636279E-09  3.750608108822E-09  2.932387695125E-09  2.286645531835E-09
  1.778366617986E-09  1.379354131251E-09  1.066962456624E-09  8.230534102787E-10
  6.331387141254E-10  4.856774496194E-10  3.715021001707E-10  2.833509771732E-10
  2.154884027541E-10  1.633970711799E-10  1.235296003663E-10  9.310847722602E-11
  6.996545057058E-11  5.241298132578E-11  3.914166436147E-11  2.913862632615E-11
  2.162281177044E-11  1.599382347857E-11  1.179160642723E-11  8.664778892154E-12
  6.345836686716E-12  4.631802492638E-12  3.369174607381E-12  2.442259082514E-12
  1.764155352517E-12  1.269815771847E-12  9.107204472715E-13  6.508057540581E-13
  4.633624261436E-13  3.286808059779E-13  2.322697719930E-13  1.635145266435E-13
  1.146688652765E-13  8.010141561623E-14  5.573398484157E-14  3.862466226408E-14
  2.665957374161E-14  1.832586839745E-14  1.254519648124E-14  8.552052001838E-15
  5.805255116529E-15  3.923812770153E-15  2.640637794061E-15  1.769295243451E-15
  1.180211235075E-15  7.837253507936E-16  5.180709434062E-16  3.408881783020E-16
  2.232584439310E-16  1.455300490893E-16  9.441077541192E-17  6.095221973465E-17
  3.915896501157E-17  2.503346395458E-17  1.592328433999E-17  1.007720496400E-17
  6.344784003437E-18  3.974074366153E-18  2.476111550355E-18  1.534587956406E-18
  9.459596568955E-19  5.799414196450E-19  3.535877525929E-19  2.049231120569E-19
  1.237065325734E-19  7.424974139041E-20  4.430622660892E-20  0.000000000000E+00
  0.000000000000E+00  0.000000000000E+00  0.000000000000E+00  0.000000000000E+00
  0.000000000000E+00  0.000000000000E+00  0.000000000000E+00  0.000000000000E+00
  0.000000000000E+00  0.000000000000E+00  0.000000000000E+00  0.000000000000E+00
  0.000000000000E+00  0.000000000000E+00  0.000000000000E+00  0.000000000000E+00
  0.000000000000E+00
</data>
</radfunc>
</valence-charge>
<pseudocore-charge matching-radius="0.838007164909"
 number-of-continuous-derivatives="4">
<annotation model-charge-form="Teter function with specified parameters" />
<radfunc>
<data npts="291">
  8.793079275915E+01  8.792577596805E+01  8.791077890265E+01  8.788575800967E+01
  8.784904263543E+01  8.780219321064E+01  8.774248095258E+01  8.767410071356E+01
  8.759720863330E+01  8.750753248583E+01  8.740644198233E+01  8.729655133328E+01
  8.716372520312E+01  8.702498212875E+01  8.688636104684E+01  8.672666387138E+01
  8.654273171883E+01  8.636834758219E+01  8.617226461533E+01  8.595183896409E+01
  8.570411973784E+01  8.548409467396E+01  8.524264946172E+01  8.497776594290E+01
  8.468724990829E+01  8.436871874535E+01  8.401958889429E+01  8.373598688632E+01
  8.343234157873E+01  8.310731584961E+01  8.275949558516E+01  8.238738718321E+01
  8.198941531941E+01  8.156392105360E+01  8.110916036630E+01  8.062330322900E+01
  8.010443332670E+01  7.955054856821E+01  7.916081243682E+01  7.875395000896E+01
  7.832930705933E+01  7.788621426830E+01  7.742398796535E+01  7.694193102715E+01
  7.643933394527E+01  7.591547607967E+01  7.536962711488E+01  7.480104873698E+01
  7.420899654989E+01  7.359272225080E+01  7.295147608489E+01  7.228450960030E+01
  7.159107872488E+01  7.087044718625E+01  7.012189029719E+01  6.934469912789E+01
  6.853818508638E+01  6.770168492738E+01  6.683456620877E+01  6.593623321297E+01
  6.500613334821E+01  6.404376404171E+01  6.304868013294E+01  6.202050177071E+01
  6.095892281200E+01  5.986371971428E+01  5.873476090493E+01  5.815760954823E+01
  5.757201660265E+01  5.697799593023E+01  5.637556905536E+01  5.576476550403E+01
  5.514562314740E+01  5.451818854909E+01  5.388251731542E+01  5.323867444801E+01
  5.258673469772E+01  5.192678291926E+01  5.125891442530E+01  5.058323533915E+01
  4.989986294486E+01  4.920892603353E+01  4.851056524443E+01  4.780493339977E+01
  4.709219583134E+01  4.637253069765E+01  4.564612928989E+01  4.491319632480E+01
  4.417395022277E+01  4.342862336907E+01  4.267746235620E+01  4.192072820532E+01
  4.115869656431E+01  4.039165788035E+01  3.961991754445E+01  3.884379600556E+01
  3.806362885163E+01  3.727976685499E+01  3.649257597941E+01  3.570243734606E+01
  3.490974715560E+01  3.411491656367E+01  3.331837150685E+01  3.252055247639E+01
  3.172191423688E+01  3.092292548711E+01  3.012406846047E+01  2.932583846225E+01
  2.852874334138E+01  2.773330289423E+01  2.694004819833E+01  2.614952087391E+01
  2.536227227157E+01  2.457886258452E+01  2.379985988419E+01  2.302583907828E+01
  2.225738079074E+01  2.149507016352E+01  2.073949558055E+01  1.999124731446E+01
  1.925091609776E+01  1.851909162007E+01  1.779636095404E+01  1.708330691307E+01
  1.638050634474E+01  1.568852836437E+01  1.500793253407E+01  1.433926699337E+01
  1.368306654825E+01  1.303985072620E+01  1.241012180592E+01  1.179436283091E+01
  1.119303561714E+01  1.060657876567E+01  1.003540569221E+01  9.479902685820E+00
  8.940427010272E+00  8.417305061767E+00  7.910830597556E+00  7.421263050415E+00
  6.948825944338E+00  6.493705427114E+00  6.056048935572E+00  5.635964009344E+00
  5.233517268791E+00  4.848733572444E+00  4.481595368809E+00  4.132042256624E+00
  3.799970766785E+00  3.485234377977E+00  3.187643776662E+00  2.906967370506E+00
  2.642932062413E+00  2.395224290339E+00  2.163491335674E+00  1.947342900529E+00
  1.746352951495E+00  1.560061824587E+00  1.387978583007E+00  1.229583616214E+00
  1.084331465532E+00  9.516538582345E-01  8.309629287806E-01  7.216546026493E-01
  6.231121151386E-01  5.347096345834E-01  4.558159567980E-01  3.857982352059E-01
  3.240257091733E-01  2.698733915651E-01  2.227256755622E-01  1.819798203795E-01
  1.470492757554E-01  1.173668059904E-01  9.238737593373E-02  7.159076366764E-02
  5.448386772879E-02  4.060268052622E-02  2.951390413121E-02  2.081618978208E-02
  1.414098819266E-02  9.153003988943E-03  5.550254210421E-03  3.063737670269E-03
  1.456728923390E-03  5.237174780586E-04  8.901953096184E-05  5.095723799905E-06
  1.506140283761E-04  4.283016863229E-04  7.626339904376E-04  1.097410445964E-03
  1.393270365933E-03  1.625200140659E-03  1.780083221686E-03  1.854341262912E-03
  1.851710902391E-03  1.781195434653E-03  1.655224254218E-03  1.488045635540E-03
  1.294370388591E-03  1.088275468032E-03  8.823680236004E-04  6.872019849467E-04
  5.109314062957E-04  3.591777751233E-04  2.350826087074E-04  1.395121739509E-04
  7.137826209531E-05  2.803775144195E-05  5.734235737725E-06  4.723161509473E-08
  6.318262092279E-06  2.002821355049E-05  3.710647157078E-05  5.415908463115E-05
  6.861017027954E-05  7.875753594904E-05  8.374961793908E-05  8.349597051909E-05
  7.852735564686E-05  6.982378009702E-05  5.862950214667E-05  4.627311019122E-05
  3.400841230894E-05  2.288833655661E-05  1.367969014665E-05  6.821890701241E-06
  2.428121236376E-06  3.232142602999E-07  1.093231996716E-07  1.248377759250E-06
  3.149601962740E-06  5.251010965937E-06  7.085657065300E-06  8.326192855981E-06
  8.804681520667E-06  8.508071780646E-06  7.552922807268E-06  6.145417577440E-06
  4.534149785998E-06  2.963460613605E-06  1.634253297695E-06  6.774050256904E-07
  1.424446842063E-07  0.000000000000E+00  0.000000000000E+00  0.000000000000E+00
  0.000000000000E+00  0.000000000000E+00  0.000000000000E+00  0.000000000000E+00
  0.000000000000E+00  0.000000000000E+00  0.000000000000E+00  0.000000000000E+00
  0.000000000000E+00  0.000000000000E+00  0.000000000000E+00  0.000000000000E+00
  0.000000000000E+00  0.000000000000E+00  0.000000000000E+00  0.000000000000E+00
  0.000000000000E+00  0.000000000000E+00  0.000000000000E+00  0.000000000000E+00
  0.000000000000E+00  0.000000000000E+00  0.000000000000E+00  0.000000000000E+00
  0.000000000000E+00  0.000000000000E+00  0.000000000000E+00  0.000000000000E+00
  0.000000000000E+00  0.000000000000E+00  0.000000000000E+00  0.000000000000E+00
  0.000000000000E+00  0.000000000000E+00  0.000000000000E+00  0.000000000000E+00
  0.000000000000E+00  0.000000000000E+00  0.000000000000E+00  0.000000000000E+00
  0.000000000000E+00  0.000000000000E+00  0.000000000000E+00
</data>
</radfunc>
</pseudocore-charge>
<semilocal-potentials set="scalar_relativistic">
<slps n="5" l="s" rc="2.00182055626">
<radfunc>
<data npts="291">
  2.094584603790E+01  2.093328794301E+01  2.089578983275E+01  2.083337080349E+01
  2.074209857093E+01  2.062618435714E+01  2.047933305055E+01  2.031237504318E+01
  2.012616104544E+01  1.991100255473E+01  1.967102223425E+01  1.941318448742E+01
  1.910567372781E+01  1.878920627038E+01  1.847775173084E+01  1.812467655170E+01
  1.772543744910E+01  1.735406198030E+01  1.694454273104E+01  1.649407816511E+01
  1.599992450208E+01  1.557138296422E+01  1.511196176470E+01  1.462053959647E+01
  1.409615144969E+01  1.353802678649E+01  1.294562982355E+01  1.247867322066E+01
  1.199229190703E+01  1.148660211039E+01  1.096183956338E+01  1.041836809405E+01
  9.856687333711E+00  9.277439302240E+00  8.681413632719E+00  8.069551208169E+00
  7.442946003046E+00  6.802844952052E+00  6.369297341589E+00  5.930820227365E+00
  5.487892199897E+00  5.041018927470E+00  4.590731936889E+00  4.137587207542E+00
  3.682163587264E+00  3.225061040910E+00  2.766898744892E+00  2.308313043047E+00
  1.849955281092E+00  1.392489538520E+00  9.365902780003E-01  4.829399332072E-01
  3.222645639928E-02 -4.148591529635E-01 -8.576253178032E-01 -1.295382331440E+00
 -1.727444765762E+00 -2.153133823218E+00 -2.571779618748E+00 -2.982723380596E+00
 -3.385319562255E+00 -3.778937861448E+00 -4.162965146089E+00 -4.536807291489E+00
 -4.899890937750E+00 -5.251665181124E+00 -5.591603218245E+00 -5.756976022340E+00
 -5.919203967337E+00 -6.078228703939E+00 -6.233993695854E+00 -6.386444273511E+00
 -6.535527689382E+00 -6.681193175265E+00 -6.823392001920E+00 -6.962077541457E+00
 -7.097205332896E+00 -7.228733151339E+00 -7.356621081213E+00 -7.480831594036E+00
 -7.601329631208E+00 -7.718082692305E+00 -7.831060929365E+00 -7.940237247688E+00
 -8.045587413621E+00 -8.147090169841E+00 -8.244727358592E+00 -8.338484053327E+00
 -8.428348699187E+00 -8.514313262650E+00 -8.596373390687E+00 -8.674528579624E+00
 -8.748782353834E+00 -8.819142454272E+00 -8.885621036677E+00 -8.948234879156E+00
 -9.007005598513E+00 -9.061959874748E+00 -9.113129682425E+00 -9.160552527800E+00
 -9.204271689876E+00 -9.244336463431E+00 -9.280802401546E+00 -9.313731554836E+00
 -9.343192704131E+00 -9.369261582935E+00 -9.392021085618E+00 -9.411561456858E+00
 -9.427980457530E+00 -9.441383501908E+00 -9.451883760787E+00 -9.459602224947E+00
 -9.464667723273E+00 -9.467216889791E+00 -9.467394073982E+00 -9.465351188852E+00
 -9.461247491524E+00 -9.455249291416E+00 -9.447529581543E+00 -9.438267588975E+00
 -9.427648241063E+00 -9.415861544736E+00 -9.403101876880E+00 -9.389567184611E+00
 -9.375458095098E+00 -9.360976935509E+00 -9.346326664611E+00 -9.331709718560E+00
 -9.317326774531E+00 -9.303375436900E+00 -9.290048851943E+00 -9.277534258150E+00
 -9.266011480582E+00 -9.255651378921E+00 -9.246614260186E+00 -9.239048268352E+00
 -9.233087764438E+00 -9.228851711866E+00 -9.226442083196E+00 -9.225942305651E+00
 -9.227415764142E+00 -9.230904381964E+00 -9.236427300886E+00 -9.243979684106E+00
 -9.253531667528E+00 -9.265027487045E+00 -9.278384811979E+00 -9.293494317286E+00
 -9.310219529468E+00 -9.328396982844E+00 -9.347836723277E+00 -9.368323194996E+00
 -9.389616541745E+00 -9.411454345325E+00 -9.433553811797E+00 -9.455614397626E+00