Sb    ONCVPSP-3.3.0  r_core=   1.30295   1.30295   1.50346
51.0000     23.0000      180506    zatom,zion,pspd
8      11   2     4   600     0    pspcod,pspxc,lmax,lloc,mmax,r2well
5.99000000  5.00000000  0.00000000    rchrg fchrg qchrg
2     4     3     0    nproj
3     1           extension_switch
4     4     0    nprojso
0                        -5.6056314081380D-01  9.5225447828576D+00
1  0.0000000000000D+00 -1.2164563134576D-08 -1.0644862769027D-10
2  1.0000000000000D-02  7.8002667167023D-02  8.7065861532341D-02
3  2.0000000000000D-02  1.5522974183724D-01  1.7389575875266D-01
4  3.0000000000000D-02  2.3091617686189D-01  2.6025451688781D-01
5  4.0000000000000D-02  3.0431783815711D-01  3.4590853690633D-01
6  5.0000000000000D-02  3.7472152033964D-01  4.3062657507704D-01
7  6.0000000000000D-02  4.4145444213636D-01  5.1418051263000D-01
8  7.0000000000000D-02  5.0389306274115D-01  5.9634611234833D-01
9  8.0000000000000D-02  5.6147107245694D-01  6.7690375902548D-01
10  9.0000000000000D-02  6.1368642575650D-01  7.5563918085231D-01
11  1.0000000000000D-01  6.6010730205834D-01  8.3234414894915D-01
12  1.1000000000000D-01  7.0037689873828D-01  9.0681715242723D-01
13  1.2000000000000D-01  7.3421698183986D-01  9.7886404654903D-01
14  1.3000000000000D-01  7.6143014223390D-01  1.0482986717547D+00
15  1.4000000000000D-01  7.8190072820883D-01  1.1149434415294D+00
16  1.5000000000000D-01  7.9559444923411D-01  1.1786298972998D+00
17  1.6000000000000D-01  8.0255666949855D-01  1.2391992287643D+00
18  1.7000000000000D-01  8.0290943335617D-01  1.2965027582781D+00
19  1.8000000000000D-01  7.9684728758541D-01  1.3504023881260D+00
20  1.9000000000000D-01  7.8463198697051D-01  1.4007710097224D+00
21  2.0000000000000D-01  7.6658618975106D-01  1.4474928739718D+00
22  2.1000000000000D-01  7.4308626758855D-01  1.4904639222100D+00
23  2.2000000000000D-01  7.1455437053173D-01  1.5295920773120D+00
24  2.3000000000000D-01  6.8144990073031D-01  1.5647974947083D+00
25  2.4000000000000D-01  6.4426055909520D-01  1.5960127731841D+00
26  2.5000000000000D-01  6.0349313653373D-01  1.6231831254530D+00
27  2.6000000000000D-01  5.5966422564866D-01  1.6462665085944D+00
28  2.7000000000000D-01  5.1329102978916D-01  1.6652337145184D+00
29  2.8000000000000D-01  4.6488244404530D-01  1.6800684206844D+00
30  2.9000000000000D-01  4.1493057721073D-01  1.6907672013358D+00
31  3.0000000000000D-01  3.6390287498576D-01  1.6973394995411D+00
32  3.1000000000000D-01  3.1223499289646D-01  1.6998075603370D+00
33  3.2000000000000D-01  2.6032455276725D-01  1.6982063252709D+00
34  3.3000000000000D-01  2.0852589935442D-01  1.6925832886218D+00
35  3.4000000000000D-01  1.5714595422933D-01  1.6829983155659D+00
36  3.5000000000000D-01  1.0644124253879D-01  1.6695234225236D+00
37  3.6000000000000D-01  5.6616145251569D-02  1.6522425199099D+00
38  3.7000000000000D-01  7.8224053390689D-03  1.6312511174833D+00
39  3.8000000000000D-01 -3.9840108521938D-02  1.6066559924850D+00
40  3.9000000000000D-01 -8.6321402238005D-02  1.5785748207524D+00
41  4.0000000000000D-01 -1.3161816696921D-01  1.5471357710101D+00
42  4.1000000000000D-01 -1.7576947075179D-01  1.5124770625705D+00
43  4.2000000000000D-01 -2.1885142467247D-01  1.4747464867272D+00
44  4.3000000000000D-01 -2.6097093862228D-01  1.4341008922016D+00
45  4.4000000000000D-01 -3.0225870106967D-01  1.3907056350999D+00
46  4.5000000000000D-01 -3.4286153429934D-01  1.3447339939679D+00
47  4.6000000000000D-01 -3.8293429081769D-01  1.2963665506816D+00
48  4.7000000000000D-01 -4.2263146782753D-01  1.2457905380965D+00
49  4.8000000000000D-01 -4.6209872457593D-01  1.1931991555882D+00
50  4.9000000000000D-01 -5.0146449178982D-01  1.1387908538525D+00
51  5.0000000000000D-01 -5.4083186320529D-01  1.0827685905990D+00
52  5.1000000000000D-01 -5.8027095630509D-01  1.0253390590520D+00
53  5.2000000000000D-01 -6.1981192281660D-01  9.6671189148253D-01
54  5.3000000000000D-01 -6.5943877934925D-01  9.0709884031356D-01
55  5.4000000000000D-01 -6.9908421490788D-01  8.4671293967217D-01
56  5.5000000000000D-01 -7.3862551515243D-01  7.8576765060379D-01
57  5.6000000000000D-01 -7.7788172335701D-01  7.2447599350245D-01
58  5.7000000000000D-01 -8.1661213552671D-01  6.6304967164708D-01
59  5.8000000000000D-01 -8.5451620228171D-01  6.0169819005903D-01
60  5.9000000000000D-01 -8.9123488349664D-01  5.4062797420345D-01
61  6.0000000000000D-01 -9.2635347361427D-01  4.8004149334104D-01
62  6.1000000000000D-01 -9.5940588672263D-01  4.2013639359000D-01
63  6.2000000000000D-01 -9.8988036113962D-01  3.6110464597506D-01
64  6.3000000000000D-01 -1.0172265143676D+00  3.0313171491341D-01
65  6.4000000000000D-01 -1.0408636508412D+00  2.4639575271268D-01
66  6.5000000000000D-01 -1.0601901979924D+00  1.9106682572634D-01
67  6.6000000000000D-01 -1.0745941209892D+00  1.3730617782347D-01
68  6.7000000000000D-01 -1.0834641435841D+00  8.5265536778783D-02
69  6.8000000000000D-01 -1.0862015824846D+00  3.5086469070265D-02
70  6.9000000000000D-01 -1.0822325858333D+00 -1.3100211612501D-02
71  7.0000000000000D-01 -1.0710205530329D+00 -5.9174977103811D-02
72  7.1000000000000D-01 -1.0520785038249D+00 -1.0303005402008D-01
73  7.2000000000000D-01 -1.0249811592664D+00 -1.4456982521550D-01
74  7.3000000000000D-01 -9.8937649630586D-01 -1.8371115957056D-01
75  7.4000000000000D-01 -9.4499654111078D-01 -2.2038366677497D-01
76  7.5000000000000D-01 -8.9166717420310D-01 -2.5452987435263D-01
77  7.6000000000000D-01 -8.2931673267813D-01 -2.8610532481430D-01
78  7.7000000000000D-01 -7.5798321123611D-01 -3.1507859151171D-01
79  7.8000000000000D-01 -6.7781988418540D-01 -3.4143121249334D-01
80  7.9000000000000D-01 -5.8909919468301D-01 -3.6515754242128D-01
81  8.0000000000000D-01 -4.9221478495220D-01 -3.8626452339093D-01
82  8.1000000000000D-01 -3.8768157139989D-01 -4.0477137628688D-01
83  8.2000000000000D-01 -2.7613380135444D-01 -4.2070921510804D-01
84  8.3000000000000D-01 -1.5832106254994D-01 -4.3412058748079D-01
85  8.4000000000000D-01 -3.5102252212301D-02 -4.4505894534806D-01
86  8.5000000000000D-01  9.2562451079773D-02 -4.5358805055981D-01
87  8.6000000000000D-01  2.2362153331556D-01 -4.5978132078691D-01
88  8.7000000000000D-01  3.5694389373708D-01 -4.6372112182426D-01
89  8.8000000000000D-01  4.9133224704452D-01 -4.6549801293117D-01
90  8.9000000000000D-01  6.2553799763884D-01 -4.6520995236694D-01
91  9.0000000000000D-01  7.5827737478021D-01 -4.6296147070952D-01
92  9.1000000000000D-01  8.8824859105652D-01 -4.5886281988726D-01
93  9.2000000000000D-01  1.0141497637863D+00 -4.5302910610043D-01
94  9.3000000000000D-01  1.1346973204266D+00 -4.4557941495802D-01
95  9.4000000000000D-01  1.2486445948698D+00 -4.3663593719933D-01
96  9.5000000000000D-01  1.3548003124603D+00 -4.2632310330840D-01
97  9.6000000000000D-01  1.4520466574550D+00 -4.1476673516174D-01
98  9.7000000000000D-01  1.5393566178688D+00 -4.0209322257610D-01
99  9.8000000000000D-01  1.6158103091902D+00 -3.8842873224633D-01
100  9.9000000000000D-01  1.6806099902513D+00 -3.7389845608790D-01
101  1.0000000000000D+00  1.7330935015208D+00 -3.5862590542868D-01
102  1.0100000000000D+00  1.7727458784733D+00 -3.4273225682757D-01
103  1.0200000000000D+00  1.7992089177808D+00 -3.2633575459871D-01
104  1.0300000000000D+00  1.8122885067364D+00 -3.0955117426872D-01
105  1.0400000000000D+00  1.8119595594157D+00 -2.9248935037101D-01
106  1.0500000000000D+00  1.7983684410628D+00 -2.7525677106681D-01
107  1.0600000000000D+00  1.7718328031842D+00 -2.5795524112918D-01
108  1.0700000000000D+00  1.7328387925541D+00 -2.4068161390165D-01
109  1.0800000000000D+00  1.6820356406622D+00 -2.2352759187954D-01
110  1.0900000000000D+00  1.6202276858122D+00 -2.0657959457025D-01
111  1.1000000000000D+00  1.5483639208915D+00 -1.8991869141703D-01
112  1.1100000000000D+00  1.4675252056628D+00 -1.7362059660841D-01
113  1.1200000000000D+00  1.3789093163751D+00 -1.5775572189038D-01
114  1.1300000000000D+00  1.2838140513887D+00 -1.4238928256063D-01
115  1.1400000000000D+00  1.1836186413033D+00 -1.2758145122721D-01
116  1.1500000000000D+00  1.0797637456762D+00 -1.1338755324753D-01
117  1.1600000000000D+00  9.7373034026458D-01 -9.9858297334530D-02
118  1.1700000000000D+00  8.6701782700124D-01 -8.7040034272834D-02
119  1.1800000000000D+00  7.6112171131243D-01 -7.4975036460624D-02
120  1.1900000000000D+00  6.5751120115379D-01 -6.3701790822861D-02
121  1.2000000000000D+00  5.5760708985152D-01 -5.3255297502561D-02
122  1.2100000000000D+00  4.6276028357099D-01 -4.3667366798471D-02
123  1.2200000000000D+00  3.7423132208127D-01 -3.4966907073041D-02
124  1.2300000000000D+00  2.9317123592671D-01 -2.7180196481553D-02
125  1.2400000000000D+00  2.2060406229073D-01 -2.0331131811200D-02
126  1.2500000000000D+00  1.5741130966009D-01 -1.4441448367137D-02
127  1.2600000000000D+00  1.0433431019381D-01 -9.5323018192896D-03
128  1.2700000000000D+00  6.1900588145255D-02 -5.6188178463778D-03
129  1.2800000000000D+00  3.0299458414920D-02 -2.7008734098546D-03
130  1.2900000000000D+00  1.0607382403066D-02 -8.6461851837348D-04
131  1.3000000000000D+00  2.0418420363502D-03 -5.8758035768758D-05
132  1.3100000000000D+00 -9.5521874737105D-05  7.9329425440065D-05
133  1.3200000000000D+00  3.1278637691560D-05 -8.1859586046557D-06
134  1.3300000000000D+00  7.5432536371347D-05 -1.5806581882129D-05
135  1.3400000000000D+00 -1.2770437619736D-05  4.0002884506207D-06
136  1.3500000000000D+00 -1.1907833532927D-06  3.2827278748969D-07
137  1.3600000000000D+00 -2.6241372595705D-06 -8.4473143632449D-08
138  1.3700000000000D+00  0.0000000000000D+00  0.0000000000000D+00
139  1.3800000000000D+00  0.0000000000000D+00  0.0000000000000D+00
140  1.3900000000000D+00  0.0000000000000D+00  0.0000000000000D+00
141  1.4000000000000D+00  0.0000000000000D+00  0.0000000000000D+00
142  1.4100000000000D+00  0.0000000000000D+00  0.0000000000000D+00
143  1.4200000000000D+00  0.0000000000000D+00  0.0000000000000D+00
144  1.4300000000000D+00  0.0000000000000D+00  0.0000000000000D+00
145  1.4400000000000D+00  0.0000000000000D+00  0.0000000000000D+00
146  1.4500000000000D+00  0.0000000000000D+00  0.0000000000000D+00
147  1.4600000000000D+00  0.0000000000000D+00  0.0000000000000D+00
148  1.4700000000000D+00  0.0000000000000D+00  0.0000000000000D+00
149  1.4800000000000D+00  0.0000000000000D+00  0.0000000000000D+00
150  1.4900000000000D+00  0.0000000000000D+00  0.0000000000000D+00
151  1.5000000000000D+00  0.0000000000000D+00  0.0000000000000D+00
152  1.5100000000000D+00  0.0000000000000D+00  0.0000000000000D+00
153  1.5200000000000D+00  0.0000000000000D+00  0.0000000000000D+00
154  1.5300000000000D+00  0.0000000000000D+00  0.0000000000000D+00
155  1.5400000000000D+00  0.0000000000000D+00  0.0000000000000D+00
156  1.5500000000000D+00  0.0000000000000D+00  0.0000000000000D+00
157  1.5600000000000D+00  0.0000000000000D+00  0.0000000000000D+00
158  1.5700000000000D+00  0.0000000000000D+00  0.0000000000000D+00
159  1.5800000000000D+00  0.0000000000000D+00  0.0000000000000D+00
160  1.5900000000000D+00  0.0000000000000D+00  0.0000000000000D+00
161  1.6000000000000D+00  0.0000000000000D+00  0.0000000000000D+00
162  1.6100000000000D+00  0.0000000000000D+00  0.0000000000000D+00
163  1.6200000000000D+00  0.0000000000000D+00  0.0000000000000D+00
164  1.6300000000000D+00  0.0000000000000D+00  0.0000000000000D+00
165  1.6400000000000D+00  0.0000000000000D+00  0.0000000000000D+00
166  1.6500000000000D+00  0.0000000000000D+00  0.0000000000000D+00
167  1.6600000000000D+00  0.0000000000000D+00  0.0000000000000D+00
168  1.6700000000000D+00  0.0000000000000D+00  0.0000000000000D+00
169  1.6800000000000D+00  0.0000000000000D+00  0.0000000000000D+00
170  1.6900000000000D+00  0.0000000000000D+00  0.0000000000000D+00
171  1.7000000000000D+00  0.0000000000000D+00  0.0000000000000D+00
172  1.7100000000000D+00  0.0000000000000D+00  0.0000000000000D+00
173  1.7200000000000D+00  0.0000000000000D+00  0.0000000000000D+00
174  1.7300000000000D+00  0.0000000000000D+00  0.0000000000000D+00
175  1.7400000000000D+00  0.0000000000000D+00  0.0000000000000D+00
176  1.7500000000000D+00  0.0000000000000D+00  0.0000000000000D+00
177  1.7600000000000D+00  0.0000000000000D+00  0.0000000000000D+00
178  1.7700000000000D+00  0.0000000000000D+00  0.0000000000000D+00
179  1.7800000000000D+00  0.0000000000000D+00  0.0000000000000D+00
180  1.7900000000000D+00  0.0000000000000D+00  0.0000000000000D+00
181  1.8000000000000D+00  0.0000000000000D+00  0.0000000000000D+00
182  1.8100000000000D+00  0.0000000000000D+00  0.0000000000000D+00
183  1.8200000000000D+00  0.0000000000000D+00  0.0000000000000D+00
184  1.8300000000000D+00  0.0000000000000D+00  0.0000000000000D+00
185  1.8400000000000D+00  0.0000000000000D+00  0.0000000000000D+00
186  1.8500000000000D+00  0.0000000000000D+00  0.0000000000000D+00
187  1.8600000000000D+00  0.0000000000000D+00  0.0000000000000D+00
188  1.8700000000000D+00  0.0000000000000D+00  0.0000000000000D+00
189  1.8800000000000D+00  0.0000000000000D+00  0.0000000000000D+00
190  1.8900000000000D+00  0.0000000000000D+00  0.0000000000000D+00
191  1.9000000000000D+00  0.0000000000000D+00  0.0000000000000D+00
192  1.9100000000000D+00  0.0000000000000D+00  0.0000000000000D+00
193  1.9200000000000D+00  0.0000000000000D+00  0.0000000000000D+00
194  1.9300000000000D+00  0.0000000000000D+00  0.0000000000000D+00
195  1.9400000000000D+00  0.0000000000000D+00  0.0000000000000D+00
196  1.9500000000000D+00  0.0000000000000D+00  0.0000000000000D+00
197  1.9600000000000D+00  0.0000000000000D+00  0.0000000000000D+00
198  1.9700000000000D+00  0.0000000000000D+00  0.0000000000000D+00
199  1.9800000000000D+00  0.0000000000000D+00  0.0000000000000D+00
200  1.9900000000000D+00  0.0000000000000D+00  0.0000000000000D+00
201  2.0000000000000D+00  0.0000000000000D+00  0.0000000000000D+00
202  2.0100000000000D+00  0.0000000000000D+00  0.0000000000000D+00
203  2.0200000000000D+00  0.0000000000000D+00  0.0000000000000D+00
204  2.0300000000000D+00  0.0000000000000D+00  0.0000000000000D+00
205  2.0400000000000D+00  0.0000000000000D+00  0.0000000000000D+00
206  2.0500000000000D+00  0.0000000000000D+00  0.0000000000000D+00
207  2.0600000000000D+00  0.0000000000000D+00  0.0000000000000D+00
208  2.0700000000000D+00  0.0000000000000D+00  0.0000000000000D+00
209  2.0800000000000D+00  0.0000000000000D+00  0.0000000000000D+00
210  2.0900000000000D+00  0.0000000000000D+00  0.0000000000000D+00
211  2.1000000000000D+00  0.0000000000000D+00  0.0000000000000D+00
212  2.1100000000000D+00  0.0000000000000D+00  0.0000000000000D+00
213  2.1200000000000D+00  0.0000000000000D+00  0.0000000000000D+00
214  2.1300000000000D+00  0.0000000000000D+00  0.0000000000000D+00
215  2.1400000000000D+00  0.0000000000000D+00  0.0000000000000D+00
216  2.1500000000000D+00  0.0000000000000D+00  0.0000000000000D+00
217  2.1600000000000D+00  0.0000000000000D+00  0.0000000000000D+00
218  2.1700000000000D+00  0.0000000000000D+00  0.0000000000000D+00
219  2.1800000000000D+00  0.0000000000000D+00  0.0000000000000D+00
220  2.1900000000000D+00  0.0000000000000D+00  0.0000000000000D+00
221  2.2000000000000D+00  0.0000000000000D+00  0.0000000000000D+00
222  2.2100000000000D+00  0.0000000000000D+00  0.0000000000000D+00
223  2.2200000000000D+00  0.0000000000000D+00  0.0000000000000D+00
224  2.2300000000000D+00  0.0000000000000D+00  0.0000000000000D+00
225  2.2400000000000D+00  0.0000000000000D+00  0.0000000000000D+00
226  2.2500000000000D+00  0.0000000000000D+00  0.0000000000000D+00
227  2.2600000000000D+00  0.0000000000000D+00  0.0000000000000D+00
228  2.2700000000000D+00  0.0000000000000D+00  0.0000000000000D+00
229  2.2800000000000D+00  0.0000000000000D+00  0.0000000000000D+00
230  2.2900000000000D+00  0.0000000000000D+00  0.0000000000000D+00
231  2.3000000000000D+00  0.0000000000000D+00  0.0000000000000D+00
232  2.3100000000000D+00  0.0000000000000D+00  0.0000000000000D+00
233  2.3200000000000D+00  0.0000000000000D+00  0.0000000000000D+00
234  2.3300000000000D+00  0.0000000000000D+00  0.0000000000000D+00
235  2.3400000000000D+00  0.0000000000000D+00  0.0000000000000D+00
236  2.3500000000000D+00  0.0000000000000D+00  0.0000000000000D+00
237  2.3600000000000D+00  0.0000000000000D+00  0.0000000000000D+00
238  2.3700000000000D+00  0.0000000000000D+00  0.0000000000000D+00
239  2.3800000000000D+00  0.0000000000000D+00  0.0000000000000D+00
240  2.3900000000000D+00  0.0000000000000D+00  0.0000000000000D+00
241  2.4000000000000D+00  0.0000000000000D+00  0.0000000000000D+00
242  2.4100000000000D+00  0.0000000000000D+00  0.0000000000000D+00
243  2.4200000000000D+00  0.0000000000000D+00  0.0000000000000D+00
244  2.4300000000000D+00  0.0000000000000D+00  0.0000000000000D+00
245  2.4400000000000D+00  0.0000000000000D+00  0.0000000000000D+00
246  2.4500000000000D+00  0.0000000000000D+00  0.0000000000000D+00
247  2.4600000000000D+00  0.0000000000000D+00  0.0000000000000D+00
248  2.4700000000000D+00  0.0000000000000D+00  0.0000000000000D+00
249  2.4800000000000D+00  0.0000000000000D+00  0.0000000000000D+00
250  2.4900000000000D+00  0.0000000000000D+00  0.0000000000000D+00
251  2.5000000000000D+00  0.0000000000000D+00  0.0000000000000D+00
252  2.5100000000000D+00  0.0000000000000D+00  0.0000000000000D+00
253  2.5200000000000D+00  0.0000000000000D+00  0.0000000000000D+00
254  2.5300000000000D+00  0.0000000000000D+00  0.0000000000000D+00
255  2.5400000000000D+00  0.0000000000000D+00  0.0000000000000D+00
256  2.5500000000000D+00  0.0000000000000D+00  0.0000000000000D+00
257  2.5600000000000D+00  0.0000000000000D+00  0.0000000000000D+00
258  2.5700000000000D+00  0.0000000000000D+00  0.0000000000000D+00
259  2.5800000000000D+00  0.0000000000000D+00  0.0000000000000D+00
260  2.5900000000000D+00  0.0000000000000D+00  0.0000000000000D+00
261  2.6000000000000D+00  0.0000000000000D+00  0.0000000000000D+00
262  2.6100000000000D+00  0.0000000000000D+00  0.0000000000000D+00
263  2.6200000000000D+00  0.0000000000000D+00  0.0000000000000D+00
264  2.6300000000000D+00  0.0000000000000D+00  0.0000000000000D+00
265  2.6400000000000D+00  0.0000000000000D+00  0.0000000000000D+00
266  2.6500000000000D+00  0.0000000000000D+00  0.0000000000000D+00
267  2.6600000000000D+00  0.0000000000000D+00  0.0000000000000D+00
268  2.6700000000000D+00  0.0000000000000D+00  0.0000000000000D+00
269  2.6800000000000D+00  0.0000000000000D+00  0.0000000000000D+00
270  2.6900000000000D+00  0.0000000000000D+00  0.0000000000000D+00
271  2.7000000000000D+00  0.0000000000000D+00  0.0000000000000D+00
272  2.7100000000000D+00  0.0000000000000D+00  0.0000000000000D+00
273  2.7200000000000D+00  0.0000000000000D+00  0.0000000000000D+00
274  2.7300000000000D+00  0.0000000000000D+00  0.0000000000000D+00
275  2.7400000000000D+00  0.0000000000000D+00  0.0000000000000D+00
276  2.7500000000000D+00  0.0000000000000D+00  0.0000000000000D+00
277  2.7600000000000D+00  0.0000000000000D+00  0.0000000000000D+00
278  2.7700000000000D+00  0.0000000000000D+00  0.0000000000000D+00
279  2.7800000000000D+00  0.0000000000000D+00  0.0000000000000D+00
280  2.7900000000000D+00  0.0000000000000D+00  0.0000000000000D+00
281  2.8000000000000D+00  0.0000000000000D+00  0.0000000000000D+00
282  2.8100000000000D+00  0.0000000000000D+00  0.0000000000000D+00
283  2.8200000000000D+00  0.0000000000000D+00  0.0000000000000D+00
284  2.8300000000000D+00  0.0000000000000D+00  0.0000000000000D+00
285  2.8400000000000D+00  0.0000000000000D+00  0.0000000000000D+00
286  2.8500000000000D+00  0.0000000000000D+00  0.0000000000000D+00
287  2.8600000000000D+00  0.0000000000000D+00  0.0000000000000D+00
288  2.8700000000000D+00  0.0000000000000D+00  0.0000000000000D+00
289  2.8800000000000D+00  0.0000000000000D+00  0.0000000000000D+00
290  2.8900000000000D+00  0.0000000000000D+00  0.0000000000000D+00
291  2.9000000000000D+00  0.0000000000000D+00  0.0000000000000D+00
292  2.9100000000000D+00  0.0000000000000D+00  0.0000000000000D+00
293  2.9200000000000D+00  0.0000000000000D+00  0.0000000000000D+00
294  2.9300000000000D+00  0.0000000000000D+00  0.0000000000000D+00
295  2.9400000000000D+00  0.0000000000000D+00  0.0000000000000D+00
296  2.9500000000000D+00  0.0000000000000D+00  0.0000000000000D+00
297  2.9600000000000D+00  0.0000000000000D+00  0.0000000000000D+00
298  2.9700000000000D+00  0.0000000000000D+00  0.0000000000000D+00
299  2.9800000000000D+00  0.0000000000000D+00  0.0000000000000D+00
300  2.9900000000000D+00  0.0000000000000D+00  0.0000000000000D+00
301  3.0000000000000D+00  0.0000000000000D+00  0.0000000000000D+00
302  3.0100000000000D+00  0.0000000000000D+00  0.0000000000000D+00
303  3.0200000000000D+00  0.0000000000000D+00  0.0000000000000D+00
304  3.0300000000000D+00  0.0000000000000D+00  0.0000000000000D+00
305  3.0400000000000D+00  0.0000000000000D+00  0.0000000000000D+00
306  3.0500000000000D+00  0.0000000000000D+00  0.0000000000000D+00
307  3.0600000000000D+00  0.0000000000000D+00  0.0000000000000D+00
308  3.0700000000000D+00  0.0000000000000D+00  0.0000000000000D+00
309  3.0800000000000D+00  0.0000000000000D+00  0.0000000000000D+00
310  3.0900000000000D+00  0.0000000000000D+00  0.0000000000000D+00
311  3.1000000000000D+00  0.0000000000000D+00  0.0000000000000D+00
312  3.1100000000000D+00  0.0000000000000D+00  0.0000000000000D+00
313  3.1200000000000D+00  0.0000000000000D+00  0.0000000000000D+00
314  3.1300000000000D+00  0.0000000000000D+00  0.0000000000000D+00
315  3.1400000000000D+00  0.0000000000000D+00  0.0000000000000D+00
316  3.1500000000000D+00  0.0000000000000D+00  0.0000000000000D+00
317  3.1600000000000D+00  0.0000000000000D+00  0.0000000000000D+00
318  3.1700000000000D+00  0.0000000000000D+00  0.0000000000000D+00
319  3.1800000000000D+00  0.0000000000000D+00  0.0000000000000D+00
320  3.1900000000000D+00  0.0000000000000D+00  0.0000000000000D+00
321  3.2000000000000D+00  0.0000000000000D+00  0.0000000000000D+00
322  3.2100000000000D+00  0.0000000000000D+00  0.0000000000000D+00
323  3.2200000000000D+00  0.0000000000000D+00  0.0000000000000D+00
324  3.2300000000000D+00  0.0000000000000D+00  0.0000000000000D+00
325  3.2400000000000D+00  0.0000000000000D+00  0.0000000000000D+00
326  3.2500000000000D+00  0.0000000000000D+00  0.0000000000000D+00
327  3.2600000000000D+00  0.0000000000000D+00  0.0000000000000D+00
328  3.2700000000000D+00  0.0000000000000D+00  0.0000000000000D+00
329  3.2800000000000D+00  0.0000000000000D+00  0.0000000000000D+00
330  3.2900000000000D+00  0.0000000000000D+00  0.0000000000000D+00
331  3.3000000000000D+00  0.0000000000000D+00  0.0000000000000D+00
332  3.3100000000000D+00  0.0000000000000D+00  0.0000000000000D+00
333  3.3200000000000D+00  0.0000000000000D+00  0.0000000000000D+00
334  3.3300000000000D+00  0.0000000000000D+00  0.0000000000000D+00
335  3.3400000000000D+00  0.0000000000000D+00  0.0000000000000D+00
336  3.3500000000000D+00  0.0000000000000D+00  0.0000000000000D+00
337  3.3600000000000D+00  0.0000000000000D+00  0.0000000000000D+00
338  3.3700000000000D+00  0.0000000000000D+00  0.0000000000000D+00
339  3.3800000000000D+00  0.0000000000000D+00  0.0000000000000D+00
340  3.3900000000000D+00  0.0000000000000D+00  0.0000000000000D+00
341  3.4000000000000D+00  0.0000000000000D+00  0.0000000000000D+00
342  3.4100000000000D+00  0.0000000000000D+00  0.0000000000000D+00
343  3.4200000000000D+00  0.0000000000000D+00  0.0000000000000D+00
344  3.4300000000000D+00  0.0000000000000D+00  0.0000000000000D+00
345  3.4400000000000D+00  0.0000000000000D+00  0.0000000000000D+00
346  3.4500000000000D+00  0.0000000000000D+00  0.0000000000000D+00
347  3.4600000000000D+00  0.0000000000000D+00  0.0000000000000D+00
348  3.4700000000000D+00  0.0000000000000D+00  0.0000000000000D+00
349  3.4800000000000D+00  0.0000000000000D+00  0.0000000000000D+00
350  3.4900000000000D+00  0.0000000000000D+00  0.0000000000000D+00
351  3.5000000000000D+00  0.0000000000000D+00  0.0000000000000D+00
352  3.5100000000000D+00  0.0000000000000D+00  0.0000000000000D+00
353  3.5200000000000D+00  0.0000000000000D+00  0.0000000000000D+00
354  3.5300000000000D+00  0.0000000000000D+00  0.0000000000000D+00
355  3.5400000000000D+00  0.0000000000000D+00  0.0000000000000D+00
356  3.5500000000000D+00  0.0000000000000D+00  0.0000000000000D+00
357  3.5600000000000D+00  0.0000000000000D+00  0.0000000000000D+00
358  3.5700000000000D+00  0.0000000000000D+00  0.0000000000000D+00
359  3.5800000000000D+00  0.0000000000000D+00  0.0000000000000D+00
360  3.5900000000000D+00  0.0000000000000D+00  0.0000000000000D+00
361  3.6000000000000D+00  0.0000000000000D+00  0.0000000000000D+00
362  3.6100000000000D+00  0.0000000000000D+00  0.0000000000000D+00
363  3.6200000000000D+00  0.0000000000000D+00  0.0000000000000D+00
364  3.6300000000000D+00  0.0000000000000D+00  0.0000000000000D+00
365  3.6400000000000D+00  0.0000000000000D+00  0.0000000000000D+00
366  3.6500000000000D+00  0.0000000000000D+00  0.0000000000000D+00
367  3.6600000000000D+00  0.0000000000000D+00  0.0000000000000D+00
368  3.6700000000000D+00  0.0000000000000D+00  0.0000000000000D+00
369  3.6800000000000D+00  0.0000000000000D+00  0.0000000000000D+00
370  3.6900000000000D+00  0.0000000000000D+00  0.0000000000000D+00
371  3.7000000000000D+00  0.0000000000000D+00  0.0000000000000D+00
372  3.7100000000000D+00  0.0000000000000D+00  0.0000000000000D+00
373  3.7200000000000D+00  0.0000000000000D+00  0.0000000000000D+00
374  3.7300000000000D+00  0.0000000000000D+00  0.0000000000000D+00
375  3.7400000000000D+00  0.0000000000000D+00  0.0000000000000D+00
376  3.7500000000000D+00  0.0000000000000D+00  0.0000000000000D+00
377  3.7600000000000D+00  0.0000000000000D+00  0.0000000000000D+00
378  3.7700000000000D+00  0.0000000000000D+00  0.0000000000000D+00
379  3.7800000000000D+00  0.0000000000000D+00  0.0000000000000D+00
380  3.7900000000000D+00  0.0000000000000D+00  0.0000000000000D+00
381  3.8000000000000D+00  0.0000000000000D+00  0.0000000000000D+00
382  3.8100000000000D+00  0.0000000000000D+00  0.0000000000000D+00
383  3.8200000000000D+00  0.0000000000000D+00  0.0000000000000D+00
384  3.8300000000000D+00  0.0000000000000D+00  0.0000000000000D+00
385  3.8400000000000D+00  0.0000000000000D+00  0.0000000000000D+00
386  3.8500000000000D+00  0.0000000000000D+00  0.0000000000000D+00
387  3.8600000000000D+00  0.0000000000000D+00  0.0000000000000D+00
388  3.8700000000000D+00  0.0000000000000D+00  0.0000000000000D+00
389  3.8800000000000D+00  0.0000000000000D+00  0.0000000000000D+00
390  3.8900000000000D+00  0.0000000000000D+00  0.0000000000000D+00
391  3.9000000000000D+00  0.0000000000000D+00  0.0000000000000D+00
392  3.9100000000000D+00  0.0000000000000D+00  0.0000000000000D+00
393  3.9200000000000D+00  0.0000000000000D+00  0.0000000000000D+00
394  3.9300000000000D+00  0.0000000000000D+00  0.0000000000000D+00
395  3.9400000000000D+00  0.0000000000000D+00  0.0000000000000D+00
396  3.9500000000000D+00  0.0000000000000D+00  0.0000000000000D+00
397  3.9600000000000D+00  0.0000000000000D+00  0.0000000000000D+00
398  3.9700000000000D+00  0.0000000000000D+00  0.0000000000000D+00
399  3.9800000000000D+00  0.0000000000000D+00  0.0000000000000D+00
400  3.9900000000000D+00  0.0000000000000D+00  0.0000000000000D+00
401  4.0000000000000D+00  0.0000000000000D+00  0.0000000000000D+00
402  4.0100000000000D+00  0.0000000000000D+00  0.0000000000000D+00
403  4.0200000000000D+00  0.0000000000000D+00  0.0000000000000D+00
404  4.0300000000000D+00  0.0000000000000D+00  0.0000000000000D+00
405  4.0400000000000D+00  0.0000000000000D+00  0.0000000000000D+00
406  4.0500000000000D+00  0.0000000000000D+00  0.0000000000000D+00
407  4.0600000000000D+00  0.0000000000000D+00  0.0000000000000D+00
408  4.0700000000000D+00  0.0000000000000D+00  0.0000000000000D+00
409  4.0800000000000D+00  0.0000000000000D+00  0.0000000000000D+00
410  4.0900000000000D+00  0.0000000000000D+00  0.0000000000000D+00
411  4.1000000000000D+00  0.0000000000000D+00  0.0000000000000D+00
412  4.1100000000000D+00  0.0000000000000D+00  0.0000000000000D+00
413  4.1200000000000D+00  0.0000000000000D+00  0.0000000000000D+00
414  4.1300000000000D+00  0.0000000000000D+00  0.0000000000000D+00
415  4.1400000000000D+00  0.0000000000000D+00  0.0000000000000D+00
416  4.1500000000000D+00  0.0000000000000D+00  0.0000000000000D+00
417  4.1600000000000D+00  0.0000000000000D+00  0.0000000000000D+00
418  4.1700000000000D+00  0.0000000000000D+00  0.0000000000000D+00
419  4.1800000000000D+00  0.0000000000000D+00  0.0000000000000D+00
420  4.1900000000000D+00  0.0000000000000D+00  0.0000000000000D+00
421  4.2000000000000D+00  0.0000000000000D+00  0.0000000000000D+00
422  4.2100000000000D+00  0.0000000000000D+00  0.0000000000000D+00
423  4.2200000000000D+00  0.0000000000000D+00  0.0000000000000D+00
424  4.2300000000000D+00  0.0000000000000D+00  0.0000000000000D+00
425  4.2400000000000D+00  0.0000000000000D+00  0.0000000000000D+00
426  4.2500000000000D+00  0.0000000000000D+00  0.0000000000000D+00
427  4.2600000000000D+00  0.0000000000000D+00  0.0000000000000D+00
428  4.2700000000000D+00  0.0000000000000D+00  0.0000000000000D+00
429  4.2800000000000D+00  0.0000000000000D+00  0.0000000000000D+00
430  4.2900000000000D+00  0.0000000000000D+00  0.0000000000000D+00
431  4.3000000000000D+00  0.0000000000000D+00  0.0000000000000D+00
432  4.3100000000000D+00  0.0000000000000D+00  0.0000000000000D+00
433  4.3200000000000D+00  0.0000000000000D+00  0.0000000000000D+00
434  4.3300000000000D+00  0.0000000000000D+00  0.0000000000000D+00
435  4.3400000000000D+00  0.0000000000000D+00  0.0000000000000D+00
436  4.3500000000000D+00  0.0000000000000D+00  0.0000000000000D+00
437  4.3600000000000D+00  0.0000000000000D+00  0.0000000000000D+00
438  4.3700000000000D+00  0.0000000000000D+00  0.0000000000000D+00
439  4.3800000000000D+00  0.0000000000000D+00  0.0000000000000D+00
440  4.3900000000000D+00  0.0000000000000D+00  0.0000000000000D+00
441  4.4000000000000D+00  0.0000000000000D+00  0.0000000000000D+00
442  4.4100000000000D+00  0.0000000000000D+00  0.0000000000000D+00
443  4.4200000000000D+00  0.0000000000000D+00  0.0000000000000D+00