In    ONCVPSP-3.3.0  r_core=   1.60261   1.60261   1.70110
49.0000     21.0000      180506    zatom,zion,pspd
8      11   2     4   600     0    pspcod,pspxc,lmax,lloc,mmax,r2well
5.99000000  5.00000000  0.00000000    rchrg fchrg qchrg
2     4     2     0    nproj
3     1           extension_switch
4     4     0    nprojso
0                        -5.4933920393309D-01  8.4558167315290D+00
1  0.0000000000000D+00  5.6793824504409D-10  8.8497875694316D-11
2  1.0000000000000D-02  7.0623224441598D-03  8.9313999061636D-02
3  2.0000000000000D-02  1.4176725539737D-02  1.7838267847640D-01
4  3.0000000000000D-02  2.1394517805847D-02  2.6696141724100D-01
5  4.0000000000000D-02  2.8765474655478D-02  3.5480699104250D-01
6  5.0000000000000D-02  3.6337099592230D-02  4.4167826908815D-01
7  6.0000000000000D-02  4.4153918298707D-02  5.2733690905279D-01
8  7.0000000000000D-02  5.2256815905567D-02  6.1154804941012D-01
9  8.0000000000000D-02  6.0682427162321D-02  6.9408099832602D-01
10  9.0000000000000D-02  6.9462588534145D-02  7.7470991818419D-01
11  1.0000000000000D-01  7.8623860431636D-02  8.5321450468916D-01
12  1.1000000000000D-01  8.8187126852703D-02  9.2938065935123D-01
13  1.2000000000000D-01  9.8167278688822D-02  1.0030011540049D+00
14  1.3000000000000D-01  1.0857298583435D-01  1.0738762858483D+00
15  1.4000000000000D-01  1.1940656205112D-01  1.1418145213221D+00
16  1.5000000000000D-01  1.3066392529570D-01  1.2066331269696D+00
17  1.6000000000000D-01  1.4233465492909D-01  1.2681587852465D+00
18  1.7000000000000D-01  1.5440214591347D-01  1.3262281930756D+00
19  1.8000000000000D-01  1.6684385877551D-01  1.3806886407751D+00
20  1.9000000000000D-01  1.7963166279615D-01  1.4313985688310D+00
21  2.0000000000000D-01  1.9273226858946D-01  1.4782280998437D+00
22  2.1000000000000D-01  2.0610774497549D-01  1.5210595428468D+00
23  2.2000000000000D-01  2.1971611384861D-01  1.5597878670930D+00
24  2.3000000000000D-01  2.3351201561048D-01  1.5943211423120D+00
25  2.4000000000000D-01  2.4744743668926D-01  1.6245809423902D+00
26  2.5000000000000D-01  2.6147248971838D-01  1.6505027093879D+00
27  2.6000000000000D-01  2.7553623611170D-01  1.6720360748102D+00
28  2.7000000000000D-01  2.8958754005860D-01  1.6891451350791D+00
29  2.8000000000000D-01  3.0357594238257D-01  1.7018086782214D+00
30  2.9000000000000D-01  3.1745254226873D-01  1.7100203588878D+00
31  3.0000000000000D-01  3.3117087457653D-01  1.7137888189577D+00
32  3.1000000000000D-01  3.4468777031844D-01  1.7131377511590D+00
33  3.2000000000000D-01  3.5796418790728D-01  1.7081059033436D+00
34  3.3000000000000D-01  3.7096600295576D-01  1.6987470213097D+00
35  3.4000000000000D-01  3.8366474475045D-01  1.6851297283433D+00
36  3.5000000000000D-01  3.9603826801790D-01  1.6673373399719D+00
37  3.6000000000000D-01  4.0807134924688D-01  1.6454676127734D+00
38  3.7000000000000D-01  4.1975619762339D-01  1.6196324264615D+00
39  3.8000000000000D-01  4.3109287156500D-01  1.5899573988811D+00
40  3.9000000000000D-01  4.4208959289874D-01  1.5565814339746D+00
41  4.0000000000000D-01  4.5276295190169D-01  1.5196562032363D+00
42  4.1000000000000D-01  4.6313799770075D-01  1.4793455616411D+00
43  4.2000000000000D-01  4.7324820989627D-01  1.4358248995137D+00
44  4.3000000000000D-01  4.8313534871467D-01  1.3892804322998D+00
45  4.4000000000000D-01  4.9284918249391D-01  1.3399084306907D+00
46  4.5000000000000D-01  5.0244709284317D-01  1.2879143940488D+00
47  4.6000000000000D-01  5.1199355937767D-01  1.2335121705670D+00
48  4.7000000000000D-01  5.2155952749081D-01  1.1769230280723D+00
49  4.8000000000000D-01  5.3122166417202D-01  1.1183746798416D+00
50  4.9000000000000D-01  5.4106150838786D-01  1.0581002702359D+00
51  5.0000000000000D-01  5.5116452400067D-01  9.9633732537460D-01
52  5.1000000000000D-01  5.6161906458106D-01  9.3332667444633D-01
53  5.2000000000000D-01  5.7251526076372D-01  8.6931134760298D-01
54  5.3000000000000D-01  5.8394384198095D-01  8.0453545668659D-01
55  5.4000000000000D-01  5.9599490546868D-01  7.3924306529983D-01
56  5.5000000000000D-01  6.0875664636454D-01  6.7367705494472D-01
57  5.6000000000000D-01  6.2231406348785D-01  6.0807799411655D-01
58  5.7000000000000D-01  6.3674765600130D-01  5.4268301734877D-01
59  5.8000000000000D-01  6.5213212658978D-01  4.7772472125720D-01
60  5.9000000000000D-01  6.6853510704742D-01  4.1343008462739D-01
61  6.0000000000000D-01  6.8601592223293D-01  3.5001941952411D-01
62  6.1000000000000D-01  7.0462440823250D-01  2.8770536027925D-01
63  6.2000000000000D-01  7.2439980025731D-01  2.2669189703045D-01
64  6.3000000000000D-01  7.4536970529800D-01  1.6717346024016D-01
65  6.4000000000000D-01  7.6754917387092D-01  1.0933406232574D-01
66  6.5000000000000D-01  7.9093988431451D-01  5.3346502173275D-02
67  6.6000000000000D-01  8.1552945204731D-01 -6.2836210192412D-04
68  6.7000000000000D-01  8.4129087499151D-01 -5.2442267244511D-02
69  6.8000000000000D-01  8.6818212499377D-01 -1.0196012140481D-01
70  6.9000000000000D-01  8.9614589357559D-01 -1.4906049929765D-01
71  7.0000000000000D-01  9.2510949871894D-01 -1.9363605272026D-01
72  7.1000000000000D-01  9.5498495765946D-01 -2.3559383379862D-01
73  7.2000000000000D-01  9.8566922883835D-01 -2.7485552898383D-01
74  7.3000000000000D-01  1.0170446242815D+00 -3.1135760249176D-01
75  7.4000000000000D-01  1.0489793917404D+00 -3.4505134857081D-01
76  7.5000000000000D-01  1.0813284639784D+00 -3.7590285268020D-01
77  7.6000000000000D-01  1.1139343706302D+00 -4.0389286236511D-01
78  7.7000000000000D-01  1.1466283061291D+00 -4.2901656931519D-01
79  7.8000000000000D-01  1.1792313453112D+00 -4.5128330478171D-01
80  7.9000000000000D-01  1.2115557964911D+00 -4.7071615120253D-01
81  8.0000000000000D-01  1.2434066800714D+00 -4.8735147353448D-01
82  8.1000000000000D-01  1.2745833191374D+00 -5.0123837441405D-01
83  8.2000000000000D-01  1.3048810270056D+00 -5.1243807785326D-01
84  8.3000000000000D-01  1.3340928753633D+00 -5.2102324672266D-01
85  8.4000000000000D-01  1.3620115254764D+00 -5.2707723977198D-01
86  8.5000000000000D-01  1.3884311039670D+00 -5.3069331438667D-01
87  8.6000000000000D-01  1.4131491038859D+00 -5.3197378167004D-01
88  8.7000000000000D-01  1.4359682912370D+00 -5.3102912077314D-01
89  8.8000000000000D-01  1.4566985967678D+00 -5.2797705966406D-01
90  8.9000000000000D-01  1.4751589727160D+00 -5.2294162973220D-01
91  9.0000000000000D-01  1.4911791943176D+00 -5.1605220176000D-01
92  9.1000000000000D-01  1.5046015862197D+00 -5.0744251086228D-01
93  9.2000000000000D-01  1.5152826545220D+00 -4.9724967799258D-01
94  9.3000000000000D-01  1.5230946059630D+00 -4.8561323554526D-01
95  9.4000000000000D-01  1.5279267367973D+00 -4.7267416444383D-01
96  9.5000000000000D-01  1.5296866751340D+00 -4.5857394990085D-01
97  9.6000000000000D-01  1.5283014619409D+00 -4.4345366276544D-01
98  9.7000000000000D-01  1.5237184575282D+00 -4.2745307304467D-01
99  9.8000000000000D-01  1.5159060621310D+00 -4.1070980179081D-01
100  9.9000000000000D-01  1.5048542410899D+00 -3.9335851711590D-01
101  1.0000000000000D+00  1.4905748472335D+00 -3.7553017959412D-01
102  1.0100000000000D+00  1.4731017352151D+00 -3.5735134178033D-01
103  1.0200000000000D+00  1.4524906647876D+00 -3.3894350600370D-01
104  1.0300000000000D+00  1.4288189923045D+00 -3.2042254399084D-01
105  1.0400000000000D+00  1.4021851520781D+00 -3.0189818123873D-01
106  1.0500000000000D+00  1.3727079315456D+00 -2.8347354841155D-01
107  1.0600000000000D+00  1.3405255464269D+00 -2.6524480139922D-01
108  1.0700000000000D+00  1.3057945244630D+00 -2.4730081096517D-01
109  1.0800000000000D+00  1.2686884083573D+00 -2.2972292229089D-01
110  1.0900000000000D+00  1.2293962907032D+00 -2.1258478404244D-01
111  1.1000000000000D+00  1.1881211955570D+00 -1.9595224596659D-01
112  1.1100000000000D+00  1.1450783230816D+00 -1.7988332342261D-01
113  1.1200000000000D+00  1.1004931754364D+00 -1.6442822661635D-01
114  1.1300000000000D+00  1.0545995833653D+00 -1.4962945180277D-01
115  1.1400000000000D+00  1.0076376542099D+00 -1.3552193117067D-01
116  1.1500000000000D+00  9.5985166294370D-01 -1.2213323773449D-01
117  1.1600000000000D+00  9.1148790877213D-01 -1.0948384101753D-01
118  1.1700000000000D+00  8.6279256012897D-01 -9.7587409034673D-02
119  1.1800000000000D+00  8.1400951114624D-01 -8.6451151756737D-02
120  1.1900000000000D+00  7.6537827278630D-01 -7.6076200984885D-02
121  1.2000000000000D+00  7.1713192141124D-01 -6.6458021336459D-02
122  1.2100000000000D+00  6.6949512680414D-01 -5.7586846972830D-02
123  1.2200000000000D+00  6.2268228137984D-01 -4.9448138601815D-02
124  1.2300000000000D+00  5.7689575078510D-01 -4.2023055253835D-02
125  1.2400000000000D+00  5.3232426468346D-01 -3.5288935455910D-02
126  1.2500000000000D+00  4.8914146554882D-01 -2.9219782473667D-02
127  1.2600000000000D+00  4.4750463136247D-01 -2.3786748441466D-02
128  1.2700000000000D+00  4.0755358546090D-01 -1.8958612549804D-02
129  1.2800000000000D+00  3.6940980579974D-01 -1.4702248586209D-02
130  1.2900000000000D+00  3.3317574353508D-01 -1.0983077414892D-02
131  1.3000000000000D+00  2.9893435698753D-01 -7.7655006046581D-03
132  1.3100000000000D+00  2.6674886684764D-01 -5.0133114484236D-03
133  1.3200000000000D+00  2.3666273503825D-01 -2.6900801504283D-03
134  1.3300000000000D+00  2.0869986546142D-01 -7.5951074901681D-04
135  1.3400000000000D+00  1.8286502605626D-01  8.1423289511128D-04
136  1.3500000000000D+00  1.5914448591627D-01  2.0662336827404D-03
137  1.3600000000000D+00  1.3750685854818D-01  3.0305614610242D-03
138  1.3700000000000D+00  1.1790414462762D-01  3.7400483735628D-03
139  1.3800000000000D+00  1.0027295852372D-01  4.2260990279313D-03
140  1.3900000000000D+00  8.4535926194029D-02  4.5185357755885D-03
141  1.4000000000000D+00  7.0603238702558D-02  4.6454787720292D-03
142  1.4100000000000D+00  5.8374341216690D-02  4.6332593109813D-03
143  1.4200000000000D+00  4.7739740978164D-02  4.5063658965006D-03
144  1.4300000000000D+00  3.8582911008266D-02  4.2874207786845D-03
145  1.4400000000000D+00  3.0782269212298D-02  3.9971852758887D-03
146  1.4500000000000D+00  2.4213209924840D-02  3.6545917567647D-03
147  1.4600000000000D+00  1.8750168597905D-02  3.2768003566621D-03
148  1.4700000000000D+00  1.4268674980126D-02  2.8792732552349D-03
149  1.4800000000000D+00  1.0647452659133D-02  2.4758826053524D-03
150  1.4900000000000D+00  7.7702650252148D-03  2.0789827741054D-03
151  1.5000000000000D+00  5.5279206229587D-03  1.6995511114924D-03
152  1.5100000000000D+00  3.8210202967007D-03  1.3475280851649D-03
153  1.5200000000000D+00  2.5594092113140D-03  1.0314193812388D-03
154  1.5300000000000D+00  1.6611969497667D-03  7.5783114650773D-04
155  1.5400000000000D+00  1.0517257467491D-03  5.3097751782514D-04
156  1.5500000000000D+00  6.6275098883509D-04  3.5224435440281D-04
157  1.5600000000000D+00  4.3341764003957D-04  2.2034205160973D-04
158  1.5700000000000D+00  3.0902185884957D-04  1.3089812286367D-04
159  1.5800000000000D+00  2.5456934234193D-04  7.8961892073918D-05
160  1.5900000000000D+00  2.5335648880510D-04  5.9184440980349D-05
161  1.6000000000000D+00  2.4271939497729D-04  5.1469227714390D-05
162  1.6100000000000D+00  1.4529817217603D-04  3.0444801587255D-05
163  1.6200000000000D+00  1.8416186760694D-05  3.8771707802250D-06
164  1.6300000000000D+00 -2.4304378566324D-05 -4.9778186398431D-06
165  1.6400000000000D+00 -3.9882963592669D-06 -8.1568750058194D-07
166  1.6500000000000D+00  5.4281690638039D-06  1.1015167934138D-06
167  1.6600000000000D+00  7.6890621861114D-07  1.5565200923585D-07
168  1.6700000000000D+00 -6.4885216364992D-07 -1.3703207707957D-07
169  1.6800000000000D+00 -8.9530916235896D-08 -1.8908170615674D-08
170  1.6900000000000D+00  0.0000000000000D+00  0.0000000000000D+00
171  1.7000000000000D+00  0.0000000000000D+00  0.0000000000000D+00
172  1.7100000000000D+00  0.0000000000000D+00  0.0000000000000D+00
173  1.7200000000000D+00  0.0000000000000D+00  0.0000000000000D+00
174  1.7300000000000D+00  0.0000000000000D+00  0.0000000000000D+00
175  1.7400000000000D+00  0.0000000000000D+00  0.0000000000000D+00
176  1.7500000000000D+00  0.0000000000000D+00  0.0000000000000D+00
177  1.7600000000000D+00  0.0000000000000D+00  0.0000000000000D+00
178  1.7700000000000D+00  0.0000000000000D+00  0.0000000000000D+00
179  1.7800000000000D+00  0.0000000000000D+00  0.0000000000000D+00
180  1.7900000000000D+00  0.0000000000000D+00  0.0000000000000D+00
181  1.8000000000000D+00  0.0000000000000D+00  0.0000000000000D+00
182  1.8100000000000D+00  0.0000000000000D+00  0.0000000000000D+00
183  1.8200000000000D+00  0.0000000000000D+00  0.0000000000000D+00
184  1.8300000000000D+00  0.0000000000000D+00  0.0000000000000D+00
185  1.8400000000000D+00  0.0000000000000D+00  0.0000000000000D+00
186  1.8500000000000D+00  0.0000000000000D+00  0.0000000000000D+00
187  1.8600000000000D+00  0.0000000000000D+00  0.0000000000000D+00
188  1.8700000000000D+00  0.0000000000000D+00  0.0000000000000D+00
189  1.8800000000000D+00  0.0000000000000D+00  0.0000000000000D+00
190  1.8900000000000D+00  0.0000000000000D+00  0.0000000000000D+00
191  1.9000000000000D+00  0.0000000000000D+00  0.0000000000000D+00
192  1.9100000000000D+00  0.0000000000000D+00  0.0000000000000D+00
193  1.9200000000000D+00  0.0000000000000D+00  0.0000000000000D+00
194  1.9300000000000D+00  0.0000000000000D+00  0.0000000000000D+00
195  1.9400000000000D+00  0.0000000000000D+00  0.0000000000000D+00
196  1.9500000000000D+00  0.0000000000000D+00  0.0000000000000D+00
197  1.9600000000000D+00  0.0000000000000D+00  0.0000000000000D+00
198  1.9700000000000D+00  0.0000000000000D+00  0.0000000000000D+00
199  1.9800000000000D+00  0.0000000000000D+00  0.0000000000000D+00
200  1.9900000000000D+00  0.0000000000000D+00  0.0000000000000D+00
201  2.0000000000000D+00  0.0000000000000D+00  0.0000000000000D+00
202  2.0100000000000D+00  0.0000000000000D+00  0.0000000000000D+00
203  2.0200000000000D+00  0.0000000000000D+00  0.0000000000000D+00
204  2.0300000000000D+00  0.0000000000000D+00  0.0000000000000D+00
205  2.0400000000000D+00  0.0000000000000D+00  0.0000000000000D+00
206  2.0500000000000D+00  0.0000000000000D+00  0.0000000000000D+00
207  2.0600000000000D+00  0.0000000000000D+00  0.0000000000000D+00
208  2.0700000000000D+00  0.0000000000000D+00  0.0000000000000D+00
209  2.0800000000000D+00  0.0000000000000D+00  0.0000000000000D+00
210  2.0900000000000D+00  0.0000000000000D+00  0.0000000000000D+00
211  2.1000000000000D+00  0.0000000000000D+00  0.0000000000000D+00
212  2.1100000000000D+00  0.0000000000000D+00  0.0000000000000D+00
213  2.1200000000000D+00  0.0000000000000D+00  0.0000000000000D+00
214  2.1300000000000D+00  0.0000000000000D+00  0.0000000000000D+00
215  2.1400000000000D+00  0.0000000000000D+00  0.0000000000000D+00
216  2.1500000000000D+00  0.0000000000000D+00  0.0000000000000D+00
217  2.1600000000000D+00  0.0000000000000D+00  0.0000000000000D+00
218  2.1700000000000D+00  0.0000000000000D+00  0.0000000000000D+00
219  2.1800000000000D+00  0.0000000000000D+00  0.0000000000000D+00
220  2.1900000000000D+00  0.0000000000000D+00  0.0000000000000D+00
221  2.2000000000000D+00  0.0000000000000D+00  0.0000000000000D+00
222  2.2100000000000D+00  0.0000000000000D+00  0.0000000000000D+00
223  2.2200000000000D+00  0.0000000000000D+00  0.0000000000000D+00
224  2.2300000000000D+00  0.0000000000000D+00  0.0000000000000D+00
225  2.2400000000000D+00  0.0000000000000D+00  0.0000000000000D+00
226  2.2500000000000D+00  0.0000000000000D+00  0.0000000000000D+00
227  2.2600000000000D+00  0.0000000000000D+00  0.0000000000000D+00
228  2.2700000000000D+00  0.0000000000000D+00  0.0000000000000D+00
229  2.2800000000000D+00  0.0000000000000D+00  0.0000000000000D+00
230  2.2900000000000D+00  0.0000000000000D+00  0.0000000000000D+00
231  2.3000000000000D+00  0.0000000000000D+00  0.0000000000000D+00
232  2.3100000000000D+00  0.0000000000000D+00  0.0000000000000D+00
233  2.3200000000000D+00  0.0000000000000D+00  0.0000000000000D+00
234  2.3300000000000D+00  0.0000000000000D+00  0.0000000000000D+00
235  2.3400000000000D+00  0.0000000000000D+00  0.0000000000000D+00
236  2.3500000000000D+00  0.0000000000000D+00  0.0000000000000D+00
237  2.3600000000000D+00  0.0000000000000D+00  0.0000000000000D+00
238  2.3700000000000D+00  0.0000000000000D+00  0.0000000000000D+00
239  2.3800000000000D+00  0.0000000000000D+00  0.0000000000000D+00
240  2.3900000000000D+00  0.0000000000000D+00  0.0000000000000D+00
241  2.4000000000000D+00  0.0000000000000D+00  0.0000000000000D+00
242  2.4100000000000D+00  0.0000000000000D+00  0.0000000000000D+00
243  2.4200000000000D+00  0.0000000000000D+00  0.0000000000000D+00
244  2.4300000000000D+00  0.0000000000000D+00  0.0000000000000D+00
245  2.4400000000000D+00  0.0000000000000D+00  0.0000000000000D+00
246  2.4500000000000D+00  0.0000000000000D+00  0.0000000000000D+00
247  2.4600000000000D+00  0.0000000000000D+00  0.0000000000000D+00
248  2.4700000000000D+00  0.0000000000000D+00  0.0000000000000D+00
249  2.4800000000000D+00  0.0000000000000D+00  0.0000000000000D+00
250  2.4900000000000D+00  0.0000000000000D+00  0.0000000000000D+00
251  2.5000000000000D+00  0.0000000000000D+00  0.0000000000000D+00
252  2.5100000000000D+00  0.0000000000000D+00  0.0000000000000D+00
253  2.5200000000000D+00  0.0000000000000D+00  0.0000000000000D+00
254  2.5300000000000D+00  0.0000000000000D+00  0.0000000000000D+00
255  2.5400000000000D+00  0.0000000000000D+00  0.0000000000000D+00
256  2.5500000000000D+00  0.0000000000000D+00  0.0000000000000D+00
257  2.5600000000000D+00  0.0000000000000D+00  0.0000000000000D+00
258  2.5700000000000D+00  0.0000000000000D+00  0.0000000000000D+00
259  2.5800000000000D+00  0.0000000000000D+00  0.0000000000000D+00
260  2.5900000000000D+00  0.0000000000000D+00  0.0000000000000D+00
261  2.6000000000000D+00  0.0000000000000D+00  0.0000000000000D+00
262  2.6100000000000D+00  0.0000000000000D+00  0.0000000000000D+00
263  2.6200000000000D+00  0.0000000000000D+00  0.0000000000000D+00
264  2.6300000000000D+00  0.0000000000000D+00  0.0000000000000D+00
265  2.6400000000000D+00  0.0000000000000D+00  0.0000000000000D+00
266  2.6500000000000D+00  0.0000000000000D+00  0.0000000000000D+00
267  2.6600000000000D+00  0.0000000000000D+00  0.0000000000000D+00
268  2.6700000000000D+00  0.0000000000000D+00  0.0000000000000D+00
269  2.6800000000000D+00  0.0000000000000D+00  0.0000000000000D+00
270  2.6900000000000D+00  0.0000000000000D+00  0.0000000000000D+00
271  2.7000000000000D+00  0.0000000000000D+00  0.0000000000000D+00
272  2.7100000000000D+00  0.0000000000000D+00  0.0000000000000D+00
273  2.7200000000000D+00  0.0000000000000D+00  0.0000000000000D+00
274  2.7300000000000D+00  0.0000000000000D+00  0.0000000000000D+00
275  2.7400000000000D+00  0.0000000000000D+00  0.0000000000000D+00
276  2.7500000000000D+00  0.0000000000000D+00  0.0000000000000D+00
277  2.7600000000000D+00  0.0000000000000D+00  0.0000000000000D+00
278  2.7700000000000D+00  0.0000000000000D+00  0.0000000000000D+00
279  2.7800000000000D+00  0.0000000000000D+00  0.0000000000000D+00
280  2.7900000000000D+00  0.0000000000000D+00  0.0000000000000D+00
281  2.8000000000000D+00  0.0000000000000D+00  0.0000000000000D+00
282  2.8100000000000D+00  0.0000000000000D+00  0.0000000000000D+00
283  2.8200000000000D+00  0.0000000000000D+00  0.0000000000000D+00
284  2.8300000000000D+00  0.0000000000000D+00  0.0000000000000D+00
285  2.8400000000000D+00  0.0000000000000D+00  0.0000000000000D+00
286  2.8500000000000D+00  0.0000000000000D+00  0.0000000000000D+00
287  2.8600000000000D+00  0.0000000000000D+00  0.0000000000000D+00
288  2.8700000000000D+00  0.0000000000000D+00  0.0000000000000D+00
289  2.8800000000000D+00  0.0000000000000D+00  0.0000000000000D+00
290  2.8900000000000D+00  0.0000000000000D+00  0.0000000000000D+00
291  2.9000000000000D+00  0.0000000000000D+00  0.0000000000000D+00
292  2.9100000000000D+00  0.0000000000000D+00  0.0000000000000D+00
293  2.9200000000000D+00  0.0000000000000D+00  0.0000000000000D+00
294  2.9300000000000D+00  0.0000000000000D+00  0.0000000000000D+00
295  2.9400000000000D+00  0.0000000000000D+00  0.0000000000000D+00
296  2.9500000000000D+00  0.0000000000000D+00  0.0000000000000D+00
297  2.9600000000000D+00  0.0000000000000D+00  0.0000000000000D+00
298  2.9700000000000D+00  0.0000000000000D+00  0.0000000000000D+00
299  2.9800000000000D+00  0.0000000000000D+00  0.0000000000000D+00
300  2.9900000000000D+00  0.0000000000000D+00  0.0000000000000D+00
301  3.0000000000000D+00  0.0000000000000D+00  0.0000000000000D+00
302  3.0100000000000D+00  0.0000000000000D+00  0.0000000000000D+00
303  3.0200000000000D+00  0.0000000000000D+00  0.0000000000000D+00
304  3.0300000000000D+00  0.0000000000000D+00  0.0000000000000D+00
305  3.0400000000000D+00  0.0000000000000D+00  0.0000000000000D+00
306  3.0500000000000D+00  0.0000000000000D+00  0.0000000000000D+00
307  3.0600000000000D+00  0.0000000000000D+00  0.0000000000000D+00
308  3.0700000000000D+00  0.0000000000000D+00  0.0000000000000D+00
309  3.0800000000000D+00  0.0000000000000D+00  0.0000000000000D+00
310  3.0900000000000D+00  0.0000000000000D+00  0.0000000000000D+00
311  3.1000000000000D+00  0.0000000000000D+00  0.0000000000000D+00
312  3.1100000000000D+00  0.0000000000000D+00  0.0000000000000D+00
313  3.1200000000000D+00  0.0000000000000D+00  0.0000000000000D+00
314  3.1300000000000D+00  0.0000000000000D+00  0.0000000000000D+00
315  3.1400000000000D+00  0.0000000000000D+00  0.0000000000000D+00
316  3.1500000000000D+00  0.0000000000000D+00  0.0000000000000D+00
317  3.1600000000000D+00  0.0000000000000D+00  0.0000000000000D+00
318  3.1700000000000D+00  0.0000000000000D+00  0.0000000000000D+00
319  3.1800000000000D+00  0.0000000000000D+00  0.0000000000000D+00
320  3.1900000000000D+00  0.0000000000000D+00  0.0000000000000D+00
321  3.2000000000000D+00  0.0000000000000D+00  0.0000000000000D+00
322  3.2100000000000D+00  0.0000000000000D+00  0.0000000000000D+00
323  3.2200000000000D+00  0.0000000000000D+00  0.0000000000000D+00
324  3.2300000000000D+00  0.0000000000000D+00  0.0000000000000D+00
325  3.2400000000000D+00  0.0000000000000D+00  0.0000000000000D+00
326  3.2500000000000D+00  0.0000000000000D+00  0.0000000000000D+00
327  3.2600000000000D+00  0.0000000000000D+00  0.0000000000000D+00
328  3.2700000000000D+00  0.0000000000000D+00  0.0000000000000D+00
329  3.2800000000000D+00  0.0000000000000D+00  0.0000000000000D+00
330  3.2900000000000D+00  0.0000000000000D+00  0.0000000000000D+00
331  3.3000000000000D+00  0.0000000000000D+00  0.0000000000000D+00
332  3.3100000000000D+00  0.0000000000000D+00  0.0000000000000D+00
333  3.3200000000000D+00  0.0000000000000D+00  0.0000000000000D+00
334  3.3300000000000D+00  0.0000000000000D+00  0.0000000000000D+00
335  3.3400000000000D+00  0.0000000000000D+00  0.0000000000000D+00
336  3.3500000000000D+00  0.0000000000000D+00  0.0000000000000D+00
337  3.3600000000000D+00  0.0000000000000D+00  0.0000000000000D+00
338  3.3700000000000D+00  0.0000000000000D+00  0.0000000000000D+00
339  3.3800000000000D+00  0.0000000000000D+00  0.0000000000000D+00
340  3.3900000000000D+00  0.0000000000000D+00  0.0000000000000D+00
341  3.4000000000000D+00  0.0000000000000D+00  0.0000000000000D+00
342  3.4100000000000D+00  0.0000000000000D+00  0.0000000000000D+00
343  3.4200000000000D+00  0.0000000000000D+00  0.0000000000000D+00
344  3.4300000000000D+00  0.0000000000000D+00  0.0000000000000D+00
345  3.4400000000000D+00  0.0000000000000D+00  0.0000000000000D+00
346  3.4500000000000D+00  0.0000000000000D+00  0.0000000000000D+00
347  3.4600000000000D+00  0.0000000000000D+00  0.0000000000000D+00
348  3.4700000000000D+00  0.0000000000000D+00  0.0000000000000D+00
349  3.4800000000000D+00  0.0000000000000D+00  0.0000000000000D+00
350  3.4900000000000D+00  0.0000000000000D+00  0.0000000000000D+00
351  3.5000000000000D+00  0.0000000000000D+00  0.0000000000000D+00
352  3.5100000000000D+00  0.0000000000000D+00  0.0000000000000D+00
353  3.5200000000000D+00  0.0000000000000D+00  0.0000000000000D+00
354  3.5300000000000D+00  0.0000000000000D+00  0.0000000000000D+00
355  3.5400000000000D+00  0.0000000000000D+00  0.0000000000000D+00
356  3.5500000000000D+00  0.0000000000000D+00  0.0000000000000D+00
357  3.5600000000000D+00  0.0000000000000D+00  0.0000000000000D+00
358  3.5700000000000D+00  0.0000000000000D+00  0.0000000000000D+00
359  3.5800000000000D+00  0.0000000000000D+00  0.0000000000000D+00
360  3.5900000000000D+00  0.0000000000000D+00  0.0000000000000D+00
361  3.6000000000000D+00  0.0000000000000D+00  0.0000000000000D+00
362  3.6100000000000D+00  0.0000000000000D+00  0.0000000000000D+00
363  3.6200000000000D+00  0.0000000000000D+00  0.0000000000000D+00
364  3.6300000000000D+00  0.0000000000000D+00  0.0000000000000D+00
365  3.6400000000000D+00  0.0000000000000D+00  0.0000000000000D+00
366  3.6500000000000D+00  0.0000000000000D+00  0.0000000000000D+00
367  3.6600000000000D+00  0.0000000000000D+00  0.0000000000000D+00
368  3.6700000000000D+00  0.0000000000000D+00  0.0000000000000D+00
369  3.6800000000000D+00  0.0000000000000D+00  0.0000000000000D+00
370  3.6900000000000D+00  0.0000000000000D+00  0.0000000000000D+00
371  3.7000000000000D+00  0.0000000000000D+00  0.0000000000000D+00
372  3.7100000000000D+00  0.0000000000000D+00  0.0000000000000D+00
373  3.7200000000000D+00  0.0000000000000D+00  0.0000000000000D+00
374  3.7300000000000D+00  0.0000000000000D+00  0.0000000000000D+00
375  3.7400000000000D+00  0.0000000000000D+00  0.0000000000000D+00
376  3.7500000000000D+00  0.0000000000000D+00  0.0000000000000D+00
377  3.7600000000000D+00  0.0000000000000D+00  0.0000000000000D+00
378  3.7700000000000D+00  0.0000000000000D+00  0.0000000000000D+00
379  3.7800000000000D+00  0.0000000000000D+00  0.0000000000000D+00
380  3.7900000000000D+00  0.0000000000000D+00  0.0000000000000D+00
381  3.8000000000000D+00  0.0000000000000D+00  0.0000000000000D+00
382  3.8100000000000D+00  0.0000000000000D+00  0.0000000000000D+00
383  3.8200000000000D+00  0.0000000000000D+00  0.0000000000000D+00
384  3.8300000000000D+00  0.0000000000000D+00  0.0000000000000D+00
385  3.8400000000000D+00  0.0000000000000D+00  0.0000000000000D+00
386  3.8500000000000D+00  0.0000000000000D+00  0.0000000000000D+00
387  3.8600000000000D+00  0.0000000000000D+00  0.0000000000000D+00
388  3.8700000000000D+00  0.0000000000000D+00  0.0000000000000D+00
389  3.8800000000000D+00  0.0000000000000D+00  0.0000000000000D+00
390  3.8900000000000D+00  0.0000000000000D+00  0.0000000000000D+00
391  3.9000000000000D+00  0.0000000000000D+00  0.0000000000000D+00
392  3.9100000000000D+00  0.0000000000000D+00  0.0000000000000D+00
393  3.9200000000000D+00  0.0000000000000D+00  0.0000000000000D+00
394  3.9300000000000D+00  0.0000000000000D+00  0.0000000000000D+00
395  3.9400000000000D+00  0.0000000000000D+00  0.0000000000000D+00
396  3.9500000000000D+00  0.0000000000000D+00  0.0000000000000D+00
397  3.9600000000000D+00  0.0000000000000D+00  0.0000000000000D+00
398  3.9700000000000D+00  0.0000000000000D+00  0.0000000000000D+00
399  3.9800000000000D+00  0.0000000000000D+00  0.0000000000000D+00
400  3.9900000000000D+00  0.0000000000000D+00  0.0000000000000D+00
401  4.0000000000000D+00  0.0000000000000D+00  0.0000000000000D+00
402  4.0100000000000D+00  0.0000000000000D+00  0.0000000000000D+00
403  4.0200000000000D+00  0.0000000000000D+00  0.0000000000000D+00
404  4.0300000000000D+00  0.0000000000000D+00  0.0000000000000D+00
405  4.0400000000000D+00  0.0000000000000D+00  0.0000000000000D+00
406  4.0500000000000D+00  0.0000000000000D+00  0.0000000000000D+00
407  4.0600000000000D+00  0.0000000000000D+00  0.0000000000000D+00
408  4.0700000000000D+00  0.0000000000000D+00  0.0000000000000D+00
409  4.0800000000000D+00  0.0000000000000D+00  0.0000000000000D+00
410  4.0900000000000D+00  0.0000000000000D+00  0.0000000000000D+00
411  4.1000000000000D+00  0.0000000000000D+00  0.0000000000000D+00
412  4.1100000000000D+00  0.0000000000000D+00  0.0000000000000D+00
413  4.1200000000000D+00  0.0000000000000D+00  0.0000000000000D+00
414  4.1300000000000D+00  0.0000000000000D+00  0.0000000000000D+00
415  4.1400000000000D+00  0.0000000000000D+00  0.0000000000000D+00
416  4.1500000000000D+00  0.0000000000000D+00  0.0000000000000D+00
417  4.1600000000000D+00  0.0000000000000D+00  0.0000000000000D+00
418  4.1700000000000D+00  0.0000000000000D+00  0.0000000000000D+00
419  4.1800000000000D+00  0.0000000000000D+00  0.0000000000000D+00
420  4.1900000000000D+00  0.0000000000000D+00  0.0000000000000D+00
421  4.2000000000000D+00  0.0000000000000D+00  0.0000000000000D+00
422  4.2100000000000D+00  0.0000000000000D+00  0.0000000000000D+00
423  4.2200000000000D+00  0.0000000000000D+00  0.0000000000000D+00
424  4.2300000000000D+00  0.0000000000000D+00  0.0000000000000D+00
425  4.2400000000000D+00  0.0000000000000D+00  0.0000000000000D+00
426  4.2500000000000D+00  0.0000000000000D+00  0.0000000000000D+00
427  4.2600000000000D+00  0.0000000000000D+00  0.0000000000000D+00
428  4.2700000000000D+00  0.0000000000000D+00  0.0000000000000D+00
429  4.2800000000000D+00  0.0000000000000D+00  0.0000000000000D+00
430  4.2900000000000D+00  0.0000000000000D+00  0.0000000000000D+00
431  4.3000000000000D+00  0.0000000000000D+00  0.0000000000000D+00
432  4.3100000000000D+00  0.0000000000000D+00  0.0000000000000D+00
433  4.3200000000000D+00  0.0000000000000D+00  0.0000000000000D+00
434  4.3300000000000D+00  0.0000000000000D+00  0.0000000000000D+00
435  4.3400000000000D+00  0.0000000000000D+00  0.0000000000000D+00
436  4.3500000000000D+00  0.0000000000000D+00  0.0000000000000D+00
437  4.3600000000000D+00  0.0000000000000D+00  0.0000000000000D+00
438  4.3700000000000D+00  0.0000000000000D+00  0.0000000000000D+00
439  4.3800000000000D+00  0.0000000000000D+00  0.0000000000000D+00
440  4.3900000000000D+00  0.0000000000000D+00  0.0000000000000D+00
441  4.4000000000000D+00  0.0000000000000D+00  0.0000000000000D+00
442  4.4100000000000D+00  0.0000000000000D+00  0.0000000000000D+00
443  4.4200000000000D+00  0.0000000000000D+00  0.0000000000000D+00