<?xml version="1.0" encoding="UTF-8" ?>
<psml version="1.1" energy_unit="hartree" length_unit="bohr"
 uuid="80142bc0-5171-11e8-67f3-e91c3f7ff917"
 xmlns="http://esl.cecam.org/PSML/ns/1.1">
<provenance creator="ONCVPSP-3.3.0+psml-3.3.0-73 (fully-relativistic)"
 date="2018-05-06">
<annotation action="semilocal-pseudopotential-generation"
 action-cont="projectors-generation" />
<input-file name="oncvpsp-input">
<![CDATA[# atsym z nc nv iexc psfile
In 49 6 5 4 both
# n l f
1 0 2.0
2 0 2.0
2 1 6.0
3 0 2.0
3 1 6.0
3 2 10.0
4 0 2.0
4 1 6.0
4 2 10.0
5 0 2.0
5 1 1.0
# lmax
2
# l rc ep ncon nbas qcut
0 1.6 0.0 5 8 9.0
1 1.6 0.0 5 8 8.8
2 1.7 0.0 4 7 9.0
# lloc lpopt rc5 dvloc0
4 5 1.5 0.0
# l nproj debl
0 2 1.0
1 2 1.0
2 2 1.5
# icmod fcfact rcfact
3 5.0 1.44
# epsh1 epsh2 depsh
-12.0 12.0 0.02
# rlmax drl
6.0 0.01
 0
]]>
</input-file>
</provenance>
<pseudo-atom-spec atomic-label="In" atomic-number="49" z-pseudo="21"
 flavor="Hamann&apos;s oncvpsp" relativity="dirac" spin-dft="no"
 core-corrections="yes">
<annotation pseudo-energy="-190.330631134" />
<exchange-correlation>
<annotation oncvpsp-xc-code="4" oncvpsp-xc-type="GGA -- Perdew-Burke-Ernzerhof" />
<libxc-info number-of-functionals="2">
<functional name="Perdew, Burke &amp; Ernzerhof (GGA)" type="exchange" id="101" />
<functional name="Perdew, Burke &amp; Ernzerhof (GGA)" type="correlation"
 id="130" />
</libxc-info>
</exchange-correlation>
<valence-configuration total-valence-charge="21">
<shell n="4" l="s" occupation="2" />
<shell n="4" l="p" occupation="6" />
<shell n="4" l="d" occupation="10" />
<shell n="5" l="s" occupation="2" />
<shell n="5" l="p" occupation="1" />
</valence-configuration>
</pseudo-atom-spec>
<grid npts="457">
<annotation type="sampled from oncvpsp log grid"
 recipe="r(i:1..N) = r1*exp(a*(i-1)) + r=0; resampled"
 recipe-cont="r1: scale; a: step" scale="0.102040816327E-04"
 step="0.119285708653E-01" delta="0.500000000000E-02" rmax="44.1581064066" />
<grid-data>
  0.000000000000E+00  5.042436366198E-03  1.007187092528E-02  1.510941245291E-02
  2.011777176121E-02  2.523536637175E-02  3.054202401815E-02  3.566518465412E-02
  4.066587435065E-02  4.581790627188E-02  5.101053189425E-02  5.611822836574E-02
  6.173735967777E-02  6.711377067229E-02  7.295838755272E-02  7.837152581763E-02
  8.418629118611E-02  8.936016040508E-02  9.485200209104E-02  1.006813580000E-01
  1.068689708730E-01  1.120917571602E-01  1.175697858846E-01  1.233155309823E-01
  1.293420760023E-01  1.356631438985E-01  1.422931282787E-01  1.474773974107E-01
  1.528505487941E-01  1.584194641135E-01  1.641912757790E-01  1.701733760607E-01
  1.763734265569E-01  1.827993680065E-01  1.894594304590E-01  1.963621438154E-01
  2.035163487527E-01  2.109312080467E-01  2.160239311338E-01  2.212396129270E-01
  2.265812221416E-01  2.320517991689E-01  2.376544578081E-01  2.433923870374E-01
  2.492688528300E-01  2.552872000128E-01  2.614508541699E-01  2.677633235929E-01
  2.742282012778E-01  2.808491669694E-01  2.876299892567E-01  2.945745277173E-01
  3.016867351146E-01  3.089706596472E-01  3.164304472537E-01  3.240703439722E-01
  3.318946983570E-01  3.399079639542E-01  3.481147018359E-01  3.565195831970E-01
  3.651273920137E-01  3.739430277665E-01  3.829715082289E-01  3.922179723236E-01
  4.016876830473E-01  4.113860304668E-01  4.213185347864E-01  4.263743572039E-01
  4.314908494903E-01  4.366687396842E-01  4.419087645604E-01  4.472116697351E-01
  4.525782097720E-01  4.580091482892E-01  4.635052580687E-01  4.690673211655E-01
  4.746961290195E-01  4.803924825677E-01  4.861571923585E-01  4.919910786669E-01
  4.978949716109E-01  5.038697112702E-01  5.099161478054E-01  5.160351415791E-01
  5.222275632780E-01  5.284942940374E-01  5.348362255658E-01  5.412542602726E-01
  5.477493113959E-01  5.543223031326E-01  5.609741707702E-01  5.677058608195E-01
  5.745183311493E-01  5.814125511231E-01  5.883895017366E-01  5.954501757574E-01
  6.025955778665E-01  6.098267248009E-01  6.171446454985E-01  6.245503812445E-01
  6.320449858194E-01  6.396295256493E-01  6.473050799571E-01  6.550727409165E-01
  6.629336138075E-01  6.708888171732E-01  6.789394829793E-01  6.870867567751E-01
  6.953317978564E-01  7.036757794306E-01  7.121198887838E-01  7.206653274492E-01
  7.293133113786E-01  7.380650711151E-01  7.469218519685E-01  7.558849141921E-01
  7.649555331624E-01  7.741349995604E-01  7.834246195551E-01  7.928257149898E-01
  8.023396235697E-01  8.119676990525E-01  8.217113114411E-01  8.315718471784E-01
  8.415507093446E-01  8.516493178567E-01  8.618691096710E-01  8.722115389870E-01
  8.826780774549E-01  8.932702143843E-01  9.039894569569E-01  9.148373304404E-01
  9.258153784057E-01  9.369251629466E-01  9.481682649019E-01  9.595462840808E-01
  9.710608394897E-01  9.827135695636E-01  9.945061323984E-01  1.006440205987E+00
  1.018517488459E+00  1.030739698321E+00  1.043108574700E+00  1.055625877597E+00
  1.068293388128E+00  1.081112908785E+00  1.094086263691E+00  1.107215298855E+00
  1.120501882441E+00  1.133947905031E+00  1.147555279891E+00  1.161325943250E+00
  1.175261854569E+00  1.189364996824E+00  1.203637376785E+00  1.218081025307E+00
  1.232697997611E+00  1.247490373582E+00  1.262460258065E+00  1.277609781162E+00
  1.292941098536E+00  1.308456391718E+00  1.324157868419E+00  1.340047762840E+00
  1.356128335994E+00  1.372401876026E+00  1.388870698538E+00  1.405537146920E+00
  1.422403592684E+00  1.439472435796E+00  1.456746105025E+00  1.474227058286E+00
  1.491917782985E+00  1.509820796381E+00  1.527938645937E+00  1.546273909689E+00
  1.564829196605E+00  1.583607146964E+00  1.602610432728E+00  1.621841757920E+00
  1.641303859016E+00  1.660999505324E+00  1.680931499388E+00  1.701102677380E+00
  1.721515909509E+00  1.742174100423E+00  1.763080189628E+00  1.784237151904E+00
  1.805647997726E+00  1.827315773699E+00  1.849243562983E+00  1.871434485739E+00
  1.893891699568E+00  1.916618399963E+00  1.939617820762E+00  1.962893234612E+00
  1.986447953427E+00  2.010285328868E+00  2.034408752815E+00  2.058821657848E+00
  2.083527517742E+00  2.108529847955E+00  2.133832206131E+00  2.159438192604E+00
  2.185351450916E+00  2.211575668327E+00  2.238114576347E+00  2.264971951263E+00
  2.292151614678E+00  2.319657434054E+00  2.347493323263E+00  2.375663243142E+00
  2.404171202060E+00  2.433021256484E+00  2.462217511562E+00  2.491764121701E+00
  2.521665291161E+00  2.551925274655E+00  2.582548377951E+00  2.613538958486E+00
  2.644901425988E+00  2.676640243100E+00  2.708759926017E+00  2.741265045130E+00
  2.774160225671E+00  2.807450148379E+00  2.841139550160E+00  2.875233224762E+00
  2.909736023459E+00  2.944652855740E+00  2.979988690009E+00  3.015748554289E+00
  3.051937536941E+00  3.088560787384E+00  3.125623516833E+00  3.163130999035E+00
  3.201088571023E+00  3.239501633875E+00  3.278375653482E+00  3.317716161324E+00
  3.357528755259E+00  3.397819100323E+00  3.438592929526E+00  3.479856044681E+00
  3.521614317217E+00  3.563873689024E+00  3.606640173292E+00  3.649919855371E+00
  3.693718893636E+00  3.738043520359E+00  3.782900042604E+00  3.828294843115E+00
  3.874234381232E+00  3.920725193807E+00  3.967773896133E+00  4.015387182886E+00
  4.063571829081E+00  4.112334691030E+00  4.161682707322E+00  4.211622899810E+00
  4.262162374608E+00  4.313308323103E+00  4.365068022981E+00  4.417448839256E+00
  4.470458225327E+00  4.524103724031E+00  4.578392968720E+00  4.633333684344E+00
  4.688933688556E+00  4.745200892819E+00  4.802143303533E+00  4.859769023175E+00
  4.918086251453E+00  4.977103286471E+00  5.036828525909E+00  5.097270468219E+00
  5.158437713838E+00  5.220338966404E+00  5.282983034001E+00  5.346378830409E+00
  5.410535376374E+00  5.475461800890E+00  5.541167342501E+00  5.607661350611E+00
  5.674953286818E+00  5.743052726260E+00  5.811969358975E+00  5.881712991283E+00
  5.952293547178E+00  6.023721069745E+00  6.096005722582E+00  6.169157791252E+00
  6.243187684748E+00  6.318105936964E+00  6.393923208208E+00  6.470650286707E+00
  6.548298090147E+00  6.626877667229E+00  6.706400199236E+00  6.786877001626E+00
  6.868319525646E+00  6.950739359954E+00  7.034148232273E+00  7.118558011060E+00
  7.203980707193E+00  7.290428475679E+00  7.377913617388E+00  7.466448580796E+00
  7.556045963766E+00  7.646718515331E+00  7.738479137515E+00  7.831340887165E+00
  7.925316977811E+00  8.020420781545E+00  8.116665830923E+00  8.214065820894E+00
  8.312634610745E+00  8.412386226074E+00  8.513334860787E+00  8.615494879116E+00
  8.718880817666E+00  8.823507387478E+00  8.929389476128E+00  9.036542149841E+00
  9.144980655639E+00  9.254720423507E+00  9.365777068589E+00  9.478166393412E+00
  9.591904390133E+00  9.707007242815E+00  9.823491329728E+00  9.941373225685E+00
  1.006066970439E+01  1.018139774085E+01  1.030357451374E+01  1.042721740790E+01
  1.055234401680E+01  1.067897214500E+01  1.080711981074E+01  1.093680524847E+01
  1.106804691145E+01  1.120086347439E+01  1.133527383608E+01  1.147129712211E+01
  1.160895268758E+01  1.174826011983E+01  1.188923924126E+01  1.203191011216E+01
  1.217629303351E+01  1.232240854991E+01  1.247027745251E+01  1.261992078194E+01
  1.277135983132E+01  1.292461614930E+01  1.307971154309E+01  1.323666808160E+01
  1.339550809858E+01  1.355625419577E+01  1.371892924612E+01  1.388355639707E+01
  1.405015907383E+01  1.421876098272E+01  1.438938611451E+01  1.456205874789E+01
  1.473680345286E+01  1.491364509430E+01  1.509260883543E+01  1.527372014145E+01
  1.545700478315E+01  1.564248884055E+01  1.583019870663E+01  1.602016109111E+01
  1.621240302421E+01  1.640695186050E+01  1.660383528282E+01  1.680308130622E+01
  1.700471828189E+01  1.720877490128E+01  1.741528020009E+01  1.762426356249E+01
  1.783575472524E+01  1.804978378194E+01  1.826638118733E+01  1.848557776158E+01
  1.870740469471E+01  1.893189355105E+01  1.915907627366E+01  1.938898518895E+01
  1.962165301122E+01  1.985711284735E+01  2.009539820152E+01  2.033654297994E+01
  2.058058149570E+01  2.082754847364E+01  2.107747905533E+01  2.133040880399E+01
  2.158637370964E+01  2.184541019416E+01  2.210755511649E+01  2.237284577788E+01
  2.264131992722E+01  2.291301576634E+01  2.318797195554E+01  2.346622761901E+01
  2.374782235043E+01  2.403279621864E+01  2.432118977326E+01  2.461304405054E+01
  2.490840057915E+01  2.520730138610E+01  2.550978900273E+01  2.581590647077E+01
  2.612569734841E+01  2.643920571660E+01  2.675647618519E+01  2.707755389942E+01
  2.740248454621E+01  2.773131436076E+01  2.806409013309E+01  2.840085921469E+01
  2.874166952527E+01  2.908656955957E+01  2.943560839428E+01  2.978883569502E+01
  3.014630172336E+01  3.050805734404E+01  3.087415403217E+01  3.124464388055E+01
  3.161957960712E+01  3.199901456240E+01  3.238300273715E+01  3.277159877000E+01
  3.316485795524E+01  3.356283625070E+01  3.396559028571E+01  3.437317736914E+01
  3.478565549757E+01  3.520308336354E+01  3.562552036390E+01  3.605302660827E+01
  3.648566292757E+01  3.692349088270E+01  3.736657277329E+01  3.781497164657E+01
  3.826875130633E+01  3.872797632200E+01  3.919271203787E+01  3.966302458232E+01
  4.013898087731E+01  4.062064864784E+01  4.110809643161E+01  4.160139358879E+01
  4.210061031186E+01  4.260581763560E+01  4.311708744723E+01  4.363449249659E+01
  4.415810640655E+01
</grid-data>
</grid>
<valence-charge total-charge="21" is-unscreening-charge="yes"
 rescaled-to-z-pseudo="no">
<radfunc>
<data npts="457">
  6.186599753118E+00  6.190400795387E+00  6.201764025347E+00  6.220723993358E+00
  6.247089413789E+00  6.281765214993E+00  6.325972314933E+00  6.376611378681E+00
  6.433572496241E+00  6.500028510579E+00  6.574974542419E+00  6.656481674390E+00
  6.755050579036E+00  6.858067806997E+00  6.979684357496E+00  7.101238065730E+00
  7.241324249838E+00  7.374220250504E+00  7.523743674637E+00  7.691939231208E+00
  7.881091780220E+00  8.049206542614E+00  8.233797667986E+00  8.436430385420E+00
  8.658805936839E+00  8.902769961307E+00  9.170320368201E+00  9.387753238959E+00
  9.620634132910E+00  9.869986801516E+00  1.013688848367E+01  1.042246969121E+01
  1.072791320549E+01  1.105445208989E+01  1.140336648715E+01  1.177597892935E+01
  1.217364784241E+01  1.259775887483E+01  1.289588153040E+01  1.320679550393E+01
  1.353091527215E+01  1.386865078259E+01  1.422040442864E+01  1.458656759042E+01
  1.496751669808E+01  1.536360877179E+01  1.577517639076E+01  1.620252204225E+01
  1.664591180040E+01  1.710556828492E+01  1.758166285034E+01  1.807430695889E+01
  1.858354269385E+01  1.910933237565E+01  1.965154725121E+01  2.020995523731E+01
  2.078420771269E+01  2.137382537049E+01  2.197818316452E+01  2.259649440805E+01
  2.322779411538E+01  2.387092171265E+01  2.452450328665E+01  2.518693358949E+01
  2.585635807157E+01  2.653065527697E+01  2.720742000289E+01  2.754589459948E+01
  2.788394769747E+01  2.822119218663E+01  2.855722064791E+01  2.889160506502E+01
  2.922389659071E+01  2.955362537428E+01  2.988030045681E+01  3.020340974105E+01
  3.052242004319E+01  3.083677723377E+01  3.114590647541E+01  3.144921256506E+01
  3.174608038853E+01  3.203587549532E+01  3.231794480151E+01  3.259161742860E+01
  3.285620568599E+01  3.311100620448E+01  3.335530122798E+01  3.358836007015E+01
  3.380944074213E+01  3.401779175692E+01  3.421265411527E+01  3.439326347689E+01
  3.455885251991E+01  3.470865349034E+01  3.484190094180E+01  3.495783466449E+01
  3.505570280078E+01  3.513476514277E+01  3.519429660552E+01  3.523359086738E+01
  3.525196416682E+01  3.524875924253E+01  3.522334940140E+01  3.517514269622E+01
  3.510358619231E+01  3.500817029963E+01  3.488843314419E+01  3.474396494968E+01
  3.457441239767E+01  3.437948293213E+01  3.415894897124E+01  3.391265198747E+01
  3.364050641430E+01  3.334250333668E+01  3.301871392016E+01  3.266929253279E+01
  3.229447951328E+01  3.189460353828E+01  3.147008354238E+01  3.102143014513E+01
  3.054924654114E+01  3.005422881153E+01  2.953716561809E+01  2.899893724557E+01
  2.844051396175E+01  2.786295367083E+01  2.726739884165E+01  2.665507269942E+01
  2.602727467727E+01  2.538537513252E+01  2.473080934150E+01  2.406507079632E+01
  2.338970383681E+01  2.270629566133E+01  2.201646776992E+01  2.132186690380E+01
  2.062415555512E+01  1.992500212983E+01  1.922607085594E+01  1.852901153659E+01
  1.783544925449E+01  1.714697413941E+01  1.646513131417E+01  1.579141113693E+01
  1.512723985731E+01  1.447397080263E+01  1.383287620612E+01  1.320513978317E+01
  1.259185015351E+01  1.199399519680E+01  1.141245741685E+01  1.084801037578E+01
  1.030131624363E+01  9.772924492105E+00  9.263271743196E+00  8.772682765113E+00
  8.301372589173E+00  7.849449703076E+00  7.416920258361E+00  7.003693213317E+00
  6.609586317778E+00  6.234332833205E+00  5.877588870799E+00  5.538941222131E+00
  5.217915551321E+00  4.913984814998E+00  4.626577776364E+00  4.355087482406E+00
  4.098879578569E+00  3.857300342825E+00  3.629684330708E+00  3.415361534255E+00
  3.213663970624E+00  3.023931630038E+00  2.845517727442E+00  2.677793217499E+00
  2.520150548043E+00  2.372006642650E+00  2.232805118238E+00  2.102017768301E+00
  1.979145402312E+00  1.863718178555E+00  1.755295465738E+00  1.653465190909E+00
  1.557842025543E+00  1.468062825624E+00  1.383781010291E+00  1.304666449812E+00
  1.230405153861E+00  1.160698970697E+00  1.095265233106E+00  1.033836359089E+00
  9.761594147948E-01  9.219956465725E-01  8.711199885304E-01  8.233205514139E-01
  7.783980980985E-01  7.361655104817E-01  6.964472520660E-01  6.590788300529E-01
  6.239062603230E-01  5.907855382572E-01  5.595821179578E-01  5.301704020638E-01
  5.024332440139E-01  4.762614643001E-01  4.515533819703E-01  4.282143623790E-01
  4.061563819531E-01  3.852976105307E-01  3.655620116422E-01  3.468789609419E-01
  3.291828828487E-01  3.124129053293E-01  2.965125326474E-01  2.814293358062E-01
  2.671146603307E-01  2.535233509695E-01  2.406134928386E-01  2.283461684827E-01
  2.166852302947E-01  2.055970877059E-01  1.950505085376E-01  1.850164338931E-01
  1.754678059606E-01  1.663794080953E-01  1.577277165519E-01  1.494907632437E-01
  1.416480089173E-01  1.341802261406E-01  1.270693915209E-01  1.202985865848E-01
  1.138519067704E-01  1.077143780038E-01  1.018718803522E-01  9.631107826566E-02
  9.101935694597E-02  8.598476439759E-02  8.119595874268E-02  7.664216040184E-02
  7.231310876182E-02  6.819902297796E-02  6.429056657453E-02  6.057881552813E-02
  5.705522953854E-02  5.371162620950E-02  5.054015787980E-02  4.753329086178E-02
  4.468378686061E-02  4.198468636293E-02  3.942929379801E-02  3.701116428851E-02
  3.472409182083E-02  3.256209867789E-02  3.051942598847E-02  2.859052525908E-02
  2.677005076457E-02  2.505285268425E-02  2.343397087971E-02  2.190862922016E-02
  2.047223036973E-02  1.912035095968E-02  1.784873707680E-02  1.665330000682E-02
  1.553011217796E-02  1.447540325972E-02  1.348555637447E-02  1.255710438897E-02
  1.168672625444E-02  1.087124337716E-02  1.010761599591E-02  9.392939554673E-03
  8.724441060402E-03  8.099475419111E-03  7.515521747187E-03  6.970179657314E-03
  6.461165520819E-03  5.986308710205E-03  5.543547827245E-03  5.130926923270E-03
  4.746591719268E-03  4.388785834071E-03  4.055847029350E-03  3.746203480334E-03
  3.458370081166E-03  3.190944793667E-03  2.942605047932E-03  2.712104202784E-03
  2.498268073580E-03  2.299991534240E-03  2.116235199770E-03  1.946022194791E-03
  1.788435012951E-03  1.642612471310E-03  1.507746763144E-03  1.383080611861E-03
  1.267904528088E-03  1.161554171340E-03  1.063407817055E-03  9.728839292508E-04
  8.894388384920E-04  8.125645244169E-04  7.417865016013E-04  6.766618071681E-04
  6.167770881904E-04  5.617467866311E-04  5.112114192938E-04  4.648359500322E-04
  4.223082512707E-04  3.833376517298E-04  3.476535671275E-04  3.150042105253E-04
  2.851553789254E-04  2.578893126788E-04  2.330036242502E-04  2.103102928886E-04
  1.896347217800E-04  1.708148543044E-04  1.537003460829E-04  1.381517895822E-04
  1.240399881356E-04  1.112452763509E-04  9.965688399117E-05  8.917234054267E-05
  7.969691782066E-05  7.114310810122E-05  6.343013541270E-05  5.648349776430E-05
  5.023453823419E-05  4.462004298204E-05  3.958186439017E-05  3.506656767159E-05
  3.102509941209E-05  2.741247663465E-05  2.418749508896E-05  2.131245557452E-05
  1.875290720374E-05  1.647740660060E-05  1.445729211143E-05  1.266647217715E-05
  1.108122708134E-05  9.680023346084E-06  8.443340098586E-06  7.353506776008E-06
  6.394551575130E-06  5.552060087405E-06  4.813043589715E-06  4.165816487055E-06
  3.599882426143E-06  3.105828619111E-06  2.675227934439E-06  2.300548328616E-06
  1.975069207066E-06  1.692804316920E-06  1.448430787663E-06  1.237223948658E-06
  1.054997565261E-06  8.980491479353E-07  7.631100013997E-07  6.472996935798E-07
  5.480846370088E-07  4.632404883010E-07  3.908180844442E-07  3.291126478749E-07
  2.766360055823E-07  2.320915807762E-07  1.943519289123E-07  1.624386030154E-07
  1.355041462369E-07  1.128160223523E-07  9.374230740465E-08  7.773897786686E-08
  6.433864249252E-08  5.314057639913E-08  4.380192685363E-08  3.602997067194E-08
  2.957531308147E-08  2.422592731080E-08  1.980194306980E-08  1.615110038698E-08
  1.314479316565E-08  1.067463401707E-08  8.649478748156E-09  6.992855116567E-09
  5.640746234702E-09  4.539684297075E-09  3.645115148355E-09  2.919998623703E-09
  2.333613603198E-09  1.860540352254E-09  1.479795994996E-09  1.174101912153E-09
  9.292644937781E-10  7.336530338872E-10  5.777606521542E-10  4.538359894592E-10
  3.555750706135E-10  2.778641791808E-10  2.165658649498E-10  1.683413220432E-10
  1.305033513875E-10  1.008949705772E-10  7.778947108841E-11  5.980836018439E-11
  4.585417440038E-11  3.505562381564E-11  2.672293097206E-11  2.031157388279E-11
  1.539293677093E-11  1.163062182974E-11  8.761386469073E-12  6.579848563253E-12
  4.926251854043E-12  3.676709014103E-12  2.735444540487E-12  2.028646751385E-12
  1.499610409257E-12  1.104911223328E-12  8.114026982950E-13  5.938662085541E-13
  4.331782494914E-13  3.148857898320E-13  2.281025706552E-13  1.646569511993E-13
  1.184362305198E-13  8.488389733158E-14  6.061549412603E-14  4.312615405132E-14
  3.056873380215E-14  2.158611400077E-14  1.518490884117E-14  1.064071437529E-14
  7.427286378557E-15  5.163807017247E-15  3.575770973427E-15  2.466086995451E-15
  1.693811147716E-15  1.158558851771E-15  7.891255167598E-16  5.352134636163E-16
  3.614420963728E-16  2.430293431108E-16  1.626912499393E-16  1.084256662599E-16
  7.193479668749E-17  4.750739417561E-17  3.123018295861E-17  2.043405028380E-17
  1.330686549258E-17  8.624084340017E-18  5.562116899130E-18  3.569685190123E-18
  2.279572243535E-18  0.000000000000E+00  0.000000000000E+00  0.000000000000E+00
  0.000000000000E+00
</data>
</radfunc>
</valence-charge>
<pseudocore-charge matching-radius="0.560974170770"
 number-of-continuous-derivatives="4">
<annotation model-charge-form="Teter function with specified parameters" />
<radfunc>
<data npts="290">
  1.831921989204E+02  1.831696478758E+02  1.831022426845E+02  1.829898125589E+02
  1.828335478204E+02  1.826281676350E+02  1.823665635273E+02  1.820672109393E+02
  1.817308845482E+02  1.813390271054E+02  1.808977914744E+02  1.804187453896E+02
  1.798405511857E+02  1.792375758081E+02  1.785274474618E+02  1.778195213350E+02
  1.770059155745E+02  1.762362769582E+02  1.753728854731E+02  1.744048542455E+02
  1.733201753484E+02  1.723596141200E+02  1.713086295645E+02  1.701593409265E+02
  1.689033129392E+02  1.675315457269E+02  1.660344720079E+02  1.648233622900E+02
  1.635316074436E+02  1.621545685382E+02  1.606874524278E+02  1.591253256832E+02
  1.574631326015E+02  1.556957178762E+02  1.538178545634E+02  1.518242780190E+02
  1.497097265285E+02  1.474689893771E+02  1.459025349299E+02  1.442762537539E+02
  1.425887169056E+02  1.408385495351E+02  1.390244423657E+02  1.371451641462E+02
  1.351995751066E+02  1.331866414408E+02  1.311054508326E+02  1.289552290315E+02
  1.267353574727E+02  1.244453919219E+02  1.220850821090E+02  1.196543922961E+02
  1.171535227027E+02  1.145829316870E+02  1.119433585541E+02  1.092358468288E+02
  1.064617678001E+02  1.036228441015E+02  1.007211730552E+02  9.775924945955E+01
  9.473998745585E+01  9.166674106009E+01  8.854332289493E+01  8.537402060725E+01
  8.216361040577E+01  7.891736710608E+01  7.564107002614E+01  7.399359567500E+01
  7.234100403771E+01  7.068415897725E+01  6.902395504997E+01  6.736131700767E+01
  6.569719918376E+01  6.403258475758E+01  6.236848489144E+01  6.070593773500E+01
  5.904600729194E+01  5.738978214383E+01  5.573837402713E+01  5.409291625876E+01
  5.245456200713E+01  5.082448240525E+01  4.920386450371E+01  4.759390906176E+01
  4.599582817557E+01  4.441084274368E+01  4.284017977049E+01  4.128506950974E+01
  3.974674245098E+01  3.822642615337E+01  3.672534193229E+01  3.524470140561E+01
  3.378570290796E+01  3.234952778297E+01  3.093733656457E+01  2.955026506072E+01
  2.818942035397E+01  2.685587673547E+01  2.555067159030E+01  2.427480125424E+01
  2.302921686329E+01  2.181482021931E+01  2.063245969666E+01  1.948292621619E+01
  1.836694931459E+01  1.728519333822E+01  1.623825379186E+01  1.522665387382E+01
  1.425084122952E+01  1.331118495632E+01  1.240797289251E+01  1.154140922337E+01
  1.071161243693E+01  9.918613661037E+00  9.162355412401E+00  8.442690786635E+00
  7.759383116199E+00  7.112106120739E+00  6.500444571287E+00  5.923895486325E+00
  5.381869873753E+00  4.873695028365E+00  4.398617389517E+00  3.955805958351E+00
  3.544356268148E+00  3.163294895301E+00  2.811584491979E+00  2.488129314893E+00
  2.191781217798E+00  1.921346068504E+00  1.675590544356E+00  1.453249253501E+00
  1.253032122912E+00  1.073631988168E+00  9.137323146375E-01  7.720149749771E-01
  6.471680040553E-01  5.378932494855E-01  4.429138342179E-01  3.609813470912E-01
  2.908826780562E-01  2.314464170148E-01  1.815487389496E-01  1.401187032803E-01
  1.061429021803E-01  7.866940089352E-02  5.681092282914E-02  3.974724327590E-02
  2.672676780788E-02  1.706728465023E-02  1.015589419552E-02  5.448133225744E-03
  2.466325881785E-03  7.972076854944E-04  8.888258698645E-05  4.718570104794E-05
  4.315357280004E-04  1.050370655799E-03  1.756267866987E-03  2.440854922561E-03
  3.029619816493E-03  3.476729210732E-03  3.759959975167E-03  3.875843267847E-03
  3.835111497880E-03  3.658527023764E-03  3.373157667987E-03  3.009148492607E-03
  2.597022291897E-03  2.165523507789E-03  1.740002411214E-03  1.341319100029E-03
  9.852308285711E-04  6.822120626066E-04  4.376450410102E-04  2.523100194377E-04
  1.230991401517E-04  4.387622844154E-05  6.406795488104E-06  1.287977171889E-06
  1.881671552170E-05  4.974567228197E-05  8.588947414452E-05  1.205581269961E-04
  1.488089272098E-04  1.675220459603E-04  1.753173114117E-04  1.723398075767E-04
  1.599491501962E-04  1.403512994016E-04  1.162123801762E-04  9.029132067334E-05
  6.512256053112E-05  4.277223567499E-05  2.468190846368E-05  1.160399744529E-05
  3.623521877476E-06  2.525126127437E-07  5.772117959680E-07  3.434528022215E-06
  7.593391207333E-06  1.191861226355E-05  1.549923844494E-05  1.772957721245E-05
  1.833821190787E-05  1.736752321151E-05  1.511254772668E-05  1.203266781001E-05
  8.652090418231E-06  5.465105375227E-06  2.859830417671E-06  1.069999739318E-06
  1.590507925245E-07  0.000000000000E+00  0.000000000000E+00  0.000000000000E+00
  0.000000000000E+00  0.000000000000E+00  0.000000000000E+00  0.000000000000E+00
  0.000000000000E+00  0.000000000000E+00  0.000000000000E+00  0.000000000000E+00
  0.000000000000E+00  0.000000000000E+00  0.000000000000E+00  0.000000000000E+00
  0.000000000000E+00  0.000000000000E+00  0.000000000000E+00  0.000000000000E+00
  0.000000000000E+00  0.000000000000E+00  0.000000000000E+00  0.000000000000E+00
  0.000000000000E+00  0.000000000000E+00  0.000000000000E+00  0.000000000000E+00
  0.000000000000E+00  0.000000000000E+00  0.000000000000E+00  0.000000000000E+00
  0.000000000000E+00  0.000000000000E+00  0.000000000000E+00  0.000000000000E+00
  0.000000000000E+00  0.000000000000E+00  0.000000000000E+00  0.000000000000E+00
  0.000000000000E+00  0.000000000000E+00  0.000000000000E+00  0.000000000000E+00
  0.000000000000E+00  0.000000000000E+00  0.000000000000E+00  0.000000000000E+00
  0.000000000000E+00  0.000000000000E+00  0.000000000000E+00  0.000000000000E+00
  0.000000000000E+00  0.000000000000E+00  0.000000000000E+00  0.000000000000E+00
  0.000000000000E+00  0.000000000000E+00  0.000000000000E+00  0.000000000000E+00
  0.000000000000E+00  0.000000000000E+00  0.000000000000E+00  0.000000000000E+00
  0.000000000000E+00  0.000000000000E+00  0.000000000000E+00  0.000000000000E+00
  0.000000000000E+00  0.000000000000E+00  0.000000000000E+00  0.000000000000E+00
  0.000000000000E+00  0.000000000000E+00  0.000000000000E+00  0.000000000000E+00
  0.000000000000E+00  0.000000000000E+00
</data>
</radfunc>
</pseudocore-charge>
<semilocal-potentials set="scalar_relativistic">
<slps n="4" l="s" rc="1.60261043273">
<radfunc>
<data npts="290">
 -1.961689786748E+01 -1.961817777858E+01 -1.962200281576E+01 -1.962838084818E+01
 -1.963724135534E+01 -1.964887935346E+01 -1.966369107291E+01 -1.968062325125E+01
 -1.969962537492E+01 -1.972173642839E+01 -1.974659700604E+01 -1.977354397720E+01
 -1.980600728439E+01 -1.983979113737E+01 -1.987948605803E+01 -1.991895840964E+01
 -1.996420079865E+01 -2.000687803383E+01 -2.005461509592E+01 -2.010796347665E+01
 -2.016752203721E+01 -2.022007327716E+01 -2.027736519464E+01 -2.033976976770E+01
 -2.040767676815E+01 -2.048149210033E+01 -2.056163543741E+01 -2.062615422599E+01
 -2.069465849536E+01 -2.076733317205E+01 -2.084436256279E+01 -2.092592865996E+01
 -2.101220917551E+01 -2.110337527931E+01 -2.119958901858E+01 -2.130100039560E+01
 -2.140774408264E+01 -2.151993575523E+01 -2.159780367921E+01 -2.167815549722E+01
 -2.176100598306E+01 -2.184636317373E+01 -2.193422766174E+01 -2.202459185149E+01
 -2.211743918038E+01 -2.221274330581E+01 -2.231046725955E+01 -2.241056257143E+01
 -2.251296836450E+01 -2.261761042455E+01 -2.272440024698E+01 -2.283323406473E+01
 -2.294399186134E+01 -2.305653637359E+01 -2.317071208877E+01 -2.328634424207E+01
 -2.340323781991E+01 -2.352117657575E+01 -2.363992206508E+01 -2.375921270707E+01
 -2.387876288064E+01 -2.399826206324E+01 -2.411737402137E+01 -2.423573606215E+01
 -2.435295835602E+01 -2.446862334153E+01 -2.458228522350E+01 -2.463821786972E+01
 -2.469346957721E+01 -2.474797652407E+01 -2.480167307167E+01 -2.485449176349E+01
 -2.490636332650E+01 -2.495721667507E+01 -2.500697891758E+01 -2.505557536591E+01
 -2.510292954791E+01 -2.514896322299E+01 -2.519359640105E+01 -2.523674736476E+01
 -2.527833269549E+01 -2.531826730299E+01 -2.535646445885E+01 -2.539283583418E+01
 -2.542729154131E+01 -2.545974017997E+01 -2.549008888784E+01 -2.551824339584E+01
 -2.554410808809E+01 -2.556758606677E+01 -2.558857922203E+01 -2.560698830702E+01
 -2.562271301801E+01 -2.563565208003E+01 -2.564570333776E+01 -2.565276385197E+01
 -2.565673000149E+01 -2.565749759091E+01 -2.565496196390E+01 -2.564901812241E+01
 -2.563956085181E+01 -2.562648485198E+01 -2.560968487466E+01 -2.558905586719E+01
 -2.556449312271E+01 -2.553589243742E+01 -2.550315027483E+01 -2.546616393781E+01
 -2.542483174865E+01 -2.537905323782E+01 -2.532872934217E+01 -2.527376261321E+01
 -2.521405743661E+01 -2.514952026380E+01 -2.508005985692E+01 -2.500558754850E+01
 -2.492601751735E+01 -2.484126708230E+01 -2.475125701575E+01 -2.465591187893E+01
 -2.455516038134E+01 -2.444893576661E+01 -2.433717622774E+01 -2.421982535453E+01
 -2.409683261652E+01 -2.396815388493E+01 -2.383375199743E+01 -2.369359736976E+01
 -2.354766865846E+01 -2.339595347938E+01 -2.323844918632E+01 -2.307516371468E+01
 -2.290611649449E+01 -2.273133943699E+01 -2.255087799838E+01 -2.236479232338E+01
 -2.217315846996E+01 -2.197606971474E+01 -2.177363793638E+01 -2.156599507099E+01
 -2.135329463007E+01 -2.113571326668E+01 -2.091345236993E+01 -2.068673966153E+01
 -2.045583076001E+01 -2.022101066984E+01 -1.998259514227E+01 -1.974093184412E+01
 -1.949640125843E+01 -1.924941722853E+01 -1.900042704419E+01 -1.874991095568E+01