<?xml version="1.0" encoding="UTF-8" ?>
<psml version="1.1" energy_unit="hartree" length_unit="bohr"
 uuid="fd787d90-4709-11e8-750c-a11df9eee2de"
 xmlns="http://esl.cecam.org/PSML/ns/1.1">
<provenance creator="ONCVPSP-3.3.0+psml-3.3.0-73 (fully-relativistic)"
 date="2018-04-23">
<annotation action="semilocal-pseudopotential-generation"
 action-cont="projectors-generation" />
<input-file name="oncvpsp-input">
<![CDATA[# atsym z nc nv iexc psfile
In 49 8 3 4 both
# n l f
1 0 2.0
2 0 2.0
2 1 6.0
3 0 2.0
3 1 6.0
3 2 10.0
4 0 2.0
4 1 6.0
4 2 10.0
5 0 2.0
5 1 1.0
# lmax
2
# l rc ep ncon nbas qcut
0 2.1 0.0 5 8 2.8
1 2.35 0.0 5 8 2.8
2 1.85 0.0 4 7 8.2
# lloc lpopt rc5 dvloc0
4 5 1.7 0.0
# l nproj debl
0 2 1.1
1 2 3.0
2 2 1.5
# icmod fcfact
3 5 1.44
# epsh1 epsh2 depsh
-12.0 12.0 0.02
# rlmax drl
6.0 0.01
 0
]]>
</input-file>
</provenance>
<pseudo-atom-spec atomic-label="In" atomic-number="49" z-pseudo="13"
 flavor="Hamann&apos;s oncvpsp" relativity="dirac" spin-dft="no"
 core-corrections="yes">
<annotation pseudo-energy="-56.5522832708" />
<exchange-correlation>
<annotation oncvpsp-xc-code="4" oncvpsp-xc-type="GGA -- Perdew-Burke-Ernzerhof" />
<libxc-info number-of-functionals="2">
<functional name="Perdew, Burke &amp; Ernzerhof (GGA)" type="exchange" id="101" />
<functional name="Perdew, Burke &amp; Ernzerhof (GGA)" type="correlation"
 id="130" />
</libxc-info>
</exchange-correlation>
<valence-configuration total-valence-charge="13">
<shell n="4" l="d" occupation="10" />
<shell n="5" l="s" occupation="2" />
<shell n="5" l="p" occupation="1" />
</valence-configuration>
</pseudo-atom-spec>
<grid npts="457">
<annotation type="sampled from oncvpsp log grid"
 recipe="r(i:1..N) = r1*exp(a*(i-1)) + r=0; resampled"
 recipe-cont="r1: scale; a: step" scale="0.102040816327E-04"
 step="0.119285708653E-01" delta="0.500000000000E-02" rmax="44.1581064066" />
<grid-data>
  0.000000000000E+00  5.042436366198E-03  1.007187092528E-02  1.510941245291E-02
  2.011777176121E-02  2.523536637175E-02  3.054202401815E-02  3.566518465412E-02
  4.066587435065E-02  4.581790627188E-02  5.101053189425E-02  5.611822836574E-02
  6.173735967777E-02  6.711377067229E-02  7.295838755272E-02  7.837152581763E-02
  8.418629118611E-02  8.936016040508E-02  9.485200209104E-02  1.006813580000E-01
  1.068689708730E-01  1.120917571602E-01  1.175697858846E-01  1.233155309823E-01
  1.293420760023E-01  1.356631438985E-01  1.422931282787E-01  1.474773974107E-01
  1.528505487941E-01  1.584194641135E-01  1.641912757790E-01  1.701733760607E-01
  1.763734265569E-01  1.827993680065E-01  1.894594304590E-01  1.963621438154E-01
  2.035163487527E-01  2.109312080467E-01  2.160239311338E-01  2.212396129270E-01
  2.265812221416E-01  2.320517991689E-01  2.376544578081E-01  2.433923870374E-01
  2.492688528300E-01  2.552872000128E-01  2.614508541699E-01  2.677633235929E-01
  2.742282012778E-01  2.808491669694E-01  2.876299892567E-01  2.945745277173E-01
  3.016867351146E-01  3.089706596472E-01  3.164304472537E-01  3.240703439722E-01
  3.318946983570E-01  3.399079639542E-01  3.481147018359E-01  3.565195831970E-01
  3.651273920137E-01  3.739430277665E-01  3.829715082289E-01  3.922179723236E-01
  4.016876830473E-01  4.113860304668E-01  4.213185347864E-01  4.263743572039E-01
  4.314908494903E-01  4.366687396842E-01  4.419087645604E-01  4.472116697351E-01
  4.525782097720E-01  4.580091482892E-01  4.635052580687E-01  4.690673211655E-01
  4.746961290195E-01  4.803924825677E-01  4.861571923585E-01  4.919910786669E-01
  4.978949716109E-01  5.038697112702E-01  5.099161478054E-01  5.160351415791E-01
  5.222275632780E-01  5.284942940374E-01  5.348362255658E-01  5.412542602726E-01
  5.477493113959E-01  5.543223031326E-01  5.609741707702E-01  5.677058608195E-01
  5.745183311493E-01  5.814125511231E-01  5.883895017366E-01  5.954501757574E-01
  6.025955778665E-01  6.098267248009E-01  6.171446454985E-01  6.245503812445E-01
  6.320449858194E-01  6.396295256493E-01  6.473050799571E-01  6.550727409165E-01
  6.629336138075E-01  6.708888171732E-01  6.789394829793E-01  6.870867567751E-01
  6.953317978564E-01  7.036757794306E-01  7.121198887838E-01  7.206653274492E-01
  7.293133113786E-01  7.380650711151E-01  7.469218519685E-01  7.558849141921E-01
  7.649555331624E-01  7.741349995604E-01  7.834246195551E-01  7.928257149898E-01
  8.023396235697E-01  8.119676990525E-01  8.217113114411E-01  8.315718471784E-01
  8.415507093446E-01  8.516493178567E-01  8.618691096710E-01  8.722115389870E-01
  8.826780774549E-01  8.932702143843E-01  9.039894569569E-01  9.148373304404E-01
  9.258153784057E-01  9.369251629466E-01  9.481682649019E-01  9.595462840808E-01
  9.710608394897E-01  9.827135695636E-01  9.945061323984E-01  1.006440205987E+00
  1.018517488459E+00  1.030739698321E+00  1.043108574700E+00  1.055625877597E+00
  1.068293388128E+00  1.081112908785E+00  1.094086263691E+00  1.107215298855E+00
  1.120501882441E+00  1.133947905031E+00  1.147555279891E+00  1.161325943250E+00
  1.175261854569E+00  1.189364996824E+00  1.203637376785E+00  1.218081025307E+00
  1.232697997611E+00  1.247490373582E+00  1.262460258065E+00  1.277609781162E+00
  1.292941098536E+00  1.308456391718E+00  1.324157868419E+00  1.340047762840E+00
  1.356128335994E+00  1.372401876026E+00  1.388870698538E+00  1.405537146920E+00
  1.422403592684E+00  1.439472435796E+00  1.456746105025E+00  1.474227058286E+00
  1.491917782985E+00  1.509820796381E+00  1.527938645937E+00  1.546273909689E+00
  1.564829196605E+00  1.583607146964E+00  1.602610432728E+00  1.621841757920E+00
  1.641303859016E+00  1.660999505324E+00  1.680931499388E+00  1.701102677380E+00
  1.721515909509E+00  1.742174100423E+00  1.763080189628E+00  1.784237151904E+00
  1.805647997726E+00  1.827315773699E+00  1.849243562983E+00  1.871434485739E+00
  1.893891699568E+00  1.916618399963E+00  1.939617820762E+00  1.962893234612E+00
  1.986447953427E+00  2.010285328868E+00  2.034408752815E+00  2.058821657848E+00
  2.083527517742E+00  2.108529847955E+00  2.133832206131E+00  2.159438192604E+00
  2.185351450916E+00  2.211575668327E+00  2.238114576347E+00  2.264971951263E+00
  2.292151614678E+00  2.319657434054E+00  2.347493323263E+00  2.375663243142E+00
  2.404171202060E+00  2.433021256484E+00  2.462217511562E+00  2.491764121701E+00
  2.521665291161E+00  2.551925274655E+00  2.582548377951E+00  2.613538958486E+00
  2.644901425988E+00  2.676640243100E+00  2.708759926017E+00  2.741265045130E+00
  2.774160225671E+00  2.807450148379E+00  2.841139550160E+00  2.875233224762E+00
  2.909736023459E+00  2.944652855740E+00  2.979988690009E+00  3.015748554289E+00
  3.051937536941E+00  3.088560787384E+00  3.125623516833E+00  3.163130999035E+00
  3.201088571023E+00  3.239501633875E+00  3.278375653482E+00  3.317716161324E+00
  3.357528755259E+00  3.397819100323E+00  3.438592929526E+00  3.479856044681E+00
  3.521614317217E+00  3.563873689024E+00  3.606640173292E+00  3.649919855371E+00
  3.693718893636E+00  3.738043520359E+00  3.782900042604E+00  3.828294843115E+00
  3.874234381232E+00  3.920725193807E+00  3.967773896133E+00  4.015387182886E+00
  4.063571829081E+00  4.112334691030E+00  4.161682707322E+00  4.211622899810E+00
  4.262162374608E+00  4.313308323103E+00  4.365068022981E+00  4.417448839256E+00
  4.470458225327E+00  4.524103724031E+00  4.578392968720E+00  4.633333684344E+00
  4.688933688556E+00  4.745200892819E+00  4.802143303533E+00  4.859769023175E+00
  4.918086251453E+00  4.977103286471E+00  5.036828525909E+00  5.097270468219E+00
  5.158437713838E+00  5.220338966404E+00  5.282983034001E+00  5.346378830409E+00
  5.410535376374E+00  5.475461800890E+00  5.541167342501E+00  5.607661350611E+00
  5.674953286818E+00  5.743052726260E+00  5.811969358975E+00  5.881712991283E+00
  5.952293547178E+00  6.023721069745E+00  6.096005722582E+00  6.169157791252E+00
  6.243187684748E+00  6.318105936964E+00  6.393923208208E+00  6.470650286707E+00
  6.548298090147E+00  6.626877667229E+00  6.706400199236E+00  6.786877001626E+00
  6.868319525646E+00  6.950739359954E+00  7.034148232273E+00  7.118558011060E+00
  7.203980707193E+00  7.290428475679E+00  7.377913617388E+00  7.466448580796E+00
  7.556045963766E+00  7.646718515331E+00  7.738479137515E+00  7.831340887165E+00
  7.925316977811E+00  8.020420781545E+00  8.116665830923E+00  8.214065820894E+00
  8.312634610745E+00  8.412386226074E+00  8.513334860787E+00  8.615494879116E+00
  8.718880817666E+00  8.823507387478E+00  8.929389476128E+00  9.036542149841E+00
  9.144980655639E+00  9.254720423507E+00  9.365777068589E+00  9.478166393412E+00
  9.591904390133E+00  9.707007242815E+00  9.823491329728E+00  9.941373225685E+00
  1.006066970439E+01  1.018139774085E+01  1.030357451374E+01  1.042721740790E+01
  1.055234401680E+01  1.067897214500E+01  1.080711981074E+01  1.093680524847E+01
  1.106804691145E+01  1.120086347439E+01  1.133527383608E+01  1.147129712211E+01
  1.160895268758E+01  1.174826011983E+01  1.188923924126E+01  1.203191011216E+01
  1.217629303351E+01  1.232240854991E+01  1.247027745251E+01  1.261992078194E+01
  1.277135983132E+01  1.292461614930E+01  1.307971154309E+01  1.323666808160E+01
  1.339550809858E+01  1.355625419577E+01  1.371892924612E+01  1.388355639707E+01
  1.405015907383E+01  1.421876098272E+01  1.438938611451E+01  1.456205874789E+01
  1.473680345286E+01  1.491364509430E+01  1.509260883543E+01  1.527372014145E+01
  1.545700478315E+01  1.564248884055E+01  1.583019870663E+01  1.602016109111E+01
  1.621240302421E+01  1.640695186050E+01  1.660383528282E+01  1.680308130622E+01
  1.700471828189E+01  1.720877490128E+01  1.741528020009E+01  1.762426356249E+01
  1.783575472524E+01  1.804978378194E+01  1.826638118733E+01  1.848557776158E+01
  1.870740469471E+01  1.893189355105E+01  1.915907627366E+01  1.938898518895E+01
  1.962165301122E+01  1.985711284735E+01  2.009539820152E+01  2.033654297994E+01
  2.058058149570E+01  2.082754847364E+01  2.107747905533E+01  2.133040880399E+01
  2.158637370964E+01  2.184541019416E+01  2.210755511649E+01  2.237284577788E+01
  2.264131992722E+01  2.291301576634E+01  2.318797195554E+01  2.346622761901E+01
  2.374782235043E+01  2.403279621864E+01  2.432118977326E+01  2.461304405054E+01
  2.490840057915E+01  2.520730138610E+01  2.550978900273E+01  2.581590647077E+01
  2.612569734841E+01  2.643920571660E+01  2.675647618519E+01  2.707755389942E+01
  2.740248454621E+01  2.773131436076E+01  2.806409013309E+01  2.840085921469E+01
  2.874166952527E+01  2.908656955957E+01  2.943560839428E+01  2.978883569502E+01
  3.014630172336E+01  3.050805734404E+01  3.087415403217E+01  3.124464388055E+01
  3.161957960712E+01  3.199901456240E+01  3.238300273715E+01  3.277159877000E+01
  3.316485795524E+01  3.356283625070E+01  3.396559028571E+01  3.437317736914E+01
  3.478565549757E+01  3.520308336354E+01  3.562552036390E+01  3.605302660827E+01
  3.648566292757E+01  3.692349088270E+01  3.736657277329E+01  3.781497164657E+01
  3.826875130633E+01  3.872797632200E+01  3.919271203787E+01  3.966302458232E+01
  4.013898087731E+01  4.062064864784E+01  4.110809643161E+01  4.160139358879E+01
  4.210061031186E+01  4.260581763560E+01  4.311708744723E+01  4.363449249659E+01
  4.415810640655E+01
</grid-data>
</grid>
<valence-charge total-charge="13" is-unscreening-charge="yes"
 rescaled-to-z-pseudo="no">
<radfunc>
<data npts="457">
  7.464795001370E-03  7.467206976138E-03  7.476475796998E-03  7.498805357673E-03
  7.544112757404E-03  7.628923726405E-03  7.778539688659E-03  8.006969724436E-03
  8.336560996038E-03  8.818068958014E-03  9.486054790336E-03  1.036243315184E-02
  1.163021654312E-02  1.319759753573E-02  1.536546847077E-02  1.787420509263E-02
  2.118741567382E-02  2.474617433837E-02  2.923142950567E-02  3.488245311107E-02
  4.199904508112E-02  4.899658879847E-02  5.740438483576E-02  6.750163408447E-02
  7.962092501921E-02  9.415779904268E-02  1.115818142830E-01  1.268755003441E-01
  1.443753842092E-01  1.643886476621E-01  1.872625242124E-01  2.133888687195E-01
  2.432090889257E-01  2.772194252481E-01  3.159765502227E-01  3.601034397724E-01
  4.102954441470E-01  4.673264560760E-01  5.095668952024E-01  5.555031306282E-01
  6.054303122083E-01  6.596628955210E-01  7.185352402200E-01  7.824021086532E-01
  8.516390385943E-01  9.266425602933E-01  1.007830224132E+00  1.095640400981E+00
  1.190531812931E+00  1.292982747457E+00  1.403489903322E+00  1.522566811751E+00
  1.650741771654E+00  1.788555233187E+00  1.936556559759E+00  2.095300095071E+00
  2.265340459024E+00  2.447226994789E+00  2.641497289240E+00  2.848669690797E+00
  3.069234752899E+00  3.303645538422E+00  3.552306730860E+00  3.815562512669E+00
  4.093683190440E+00  4.386850571214E+00  4.695142124894E+00  4.854950989420E+00
  5.018514004960E+00  5.185803780622E+00  5.356783044165E+00  5.531404035755E+00
  5.709607893864E+00  5.891324035776E+00  6.076469535413E+00  6.264948501529E+00
  6.456651459637E+00  6.651454741354E+00  6.849219885195E+00  7.049793053199E+00
  7.253004468109E+00  7.458667876202E+00  7.666580041212E+00  7.876520275119E+00
  8.088250011973E+00  8.301512431188E+00  8.516032137106E+00  8.731514901892E+00
  8.947647479102E+00  9.164097495472E+00  9.380513428687E+00  9.596524679001E+00
  9.811741742680E+00  1.002575649523E+01  1.023814259234E+01  1.044845599631E+01
  1.065623563552E+01  1.086100420416E+01  1.106226910890E+01  1.125952356898E+01
  1.145224787490E+01  1.163991081077E+01  1.182197124391E+01  1.199787988445E+01
  1.216708121643E+01  1.232901560032E+01  1.248312154567E+01  1.262883815053E+01
  1.276560770270E+01  1.289287843591E+01  1.301010743157E+01  1.311676365509E+01
  1.321233111274E+01  1.329631211332E+01  1.336823061574E+01  1.342763564181E+01
  1.347410473030E+01  1.350724740660E+01  1.352670863931E+01  1.353217225318E+01
  1.352336426562E+01  1.350005611208E+01  1.346206772404E+01  1.340927042205E+01
  1.334158958532E+01  1.325900705895E+01  1.316156325983E+01  1.304935894291E+01
  1.292255659048E+01  1.278138138917E+01  1.262612176140E+01  1.245712942159E+01
  1.227481893083E+01  1.207966672843E+01  1.187220962393E+01  1.165304273894E+01
  1.142281689465E+01  1.118223544785E+01  1.093205058569E+01  1.067305909731E+01
  1.040609764845E+01  1.013203759330E+01  9.851779365990E+00  9.566246502027E+00
  9.276379347392E+00  8.983128520119E+00  8.687448195219E+00  8.390289289151E+00
  8.092592624198E+00  7.795282155983E+00  7.499258348885E+00  7.205391784103E+00
  6.914517083528E+00  6.627427229341E+00  6.344868354429E+00  6.067535072211E+00
  5.796066406569E+00  5.531042373210E+00  5.272981253325E+00  5.022337588937E+00
  4.779500917163E+00  4.544795248107E+00  4.318479278408E+00  4.100747320115E+00
  3.891730912683E+00  3.691501074954E+00  3.500071144162E+00  3.317400140600E+00
  3.143396589784E+00  2.977922728889E+00  2.820799020952E+00  2.671808898889E+00
  2.530703661622E+00  2.397207446505E+00  2.271022205469E+00  2.151832616734E+00
  2.039310869214E+00  1.933121262602E+00  1.832924572284E+00  1.738382134395E+00
  1.649159612311E+00  1.564930411495E+00  1.485378714752E+00  1.410202114640E+00
  1.339113824091E+00  1.271844450282E+00  1.208143320759E+00  1.147779354983E+00
  1.090541479234E+00  1.036238588247E+00  9.846990632982E-01  9.357698637959E-01
  8.893145181582E-01  8.452081539234E-01  8.033313377590E-01  7.635700587534E-01
  7.258155571787E-01  6.899641816233E-01  6.559172200114E-01  6.235807150730E-01
  5.928652750307E-01  5.636858901153E-01  5.359617651661E-01  5.096161760409E-01
  4.845763445497E-01  4.607733101323E-01  4.381417868818E-01  4.166200126618E-01
  3.961495928394E-01  3.766753413266E-01  3.581451223194E-01  3.405096959780E-01
  3.237225713591E-01  3.077398692992E-01  2.925201941055E-01  2.780245097756E-01
  2.642160189509E-01  2.510600435760E-01  2.385239091815E-01  2.265768323966E-01
  2.151898121093E-01  2.043355244631E-01  1.939882218601E-01  1.841236360997E-01
  1.747188857452E-01  1.657523877741E-01  1.572037735404E-01  1.490538090458E-01
  1.412843194918E-01  1.338781180621E-01  1.268189388645E-01  1.200913739428E-01
  1.136808142537E-01  1.075733944916E-01  1.017559416331E-01  9.621592706082E-02
  9.094142212484E-02  8.592105698772E-02  8.114398260044E-02  7.659983565195E-02
  7.227870633088E-02  6.817110874440E-02  6.426795383382E-02  6.056052463086E-02
  5.704045370077E-02  5.369970262137E-02  5.053054335074E-02  4.752554134066E-02
  4.467754025703E-02  4.197964817386E-02  3.942522511231E-02  3.700787180158E-02
  3.472141954436E-02  3.255992107492E-02  3.051764230399E-02  2.858905485060E-02
  2.676882926676E-02  2.505182886743E-02  2.343310408390E-02  2.190788726524E-02
  2.047158785821E-02  1.911978790248E-02  1.784823778383E-02  1.665285219406E-02
  1.552970625098E-02  1.447503174073E-02  1.348521344544E-02  1.255678552854E-02
  1.168642795072E-02  1.087096290077E-02  1.010735122160E-02  9.392688821627E-03
  8.724203063228E-03  8.099249123125E-03  7.515306322879E-03  6.969974429872E-03
  6.460969931456E-03  5.986122286678E-03  5.543370161523E-03  5.130757654723E-03
  4.746430522114E-03  4.388632408074E-03  4.055701093007E-03  3.746064765942E-03
  3.458238331305E-03  3.190819758743E-03  2.942486484505E-03  2.711991872476E-03
  2.498161742394E-03  2.299890972189E-03  2.116140180705E-03  1.945932496385E-03
  1.788350416766E-03  1.642532762933E-03  1.507671732349E-03  1.383010052790E-03
  1.267838239431E-03  1.161491956510E-03  1.063349484351E-03  9.728292920001E-04
  8.893877151779E-04  8.125167387847E-04  7.417418827450E-04  6.766201895974E-04
  6.167383118789E-04  5.617106970459E-04  5.111778674087E-04  4.648047923244E-04
  4.222793497022E-04  3.833108737158E-04  3.476287854910E-04  3.149813034403E-04
  2.851342298485E-04  2.578698102714E-04  2.329856622913E-04  2.102937701785E-04
  1.896195420373E-04  1.708009260549E-04  1.536875825434E-04  1.381401085377E-04
  1.240293118122E-04  1.112355312838E-04  9.964800088926E-05  8.916425414991E-05
  7.968956677480E-05  7.113643479054E-05  6.342408583124E-05  5.647802136623E-05
  5.022958778771E-05  4.461557442342E-05  3.957783667837E-05  3.506294264397E-05
  3.102184164164E-05  2.740955328921E-05  2.418487579275E-05  2.131011227247E-05
  1.875081402887E-05  1.647553974483E-05  1.445562970009E-05  1.266499414743E-05
  1.107991506487E-05  9.678860555910E-06  8.442311220612E-06  7.352597865055E-06
  6.393749955687E-06  5.551354259118E-06  4.812423137649E-06  4.165271996703E-06
  3.599405403161E-06  3.105411413713E-06  2.674863670373E-06  2.300230836624E-06
  1.974792962697E-06  1.692564382574E-06  1.448222758713E-06  1.237043903489E-06
  1.054842019065E-06  8.979150100853E-07  7.629945362239E-07  6.472004843568E-07
  5.479995530017E-07  4.631676546485E-07  3.907558547291E-07  3.290595791948E-07
  2.765908359472E-07  2.320532086691E-07  1.943193948490E-07  1.624110729494E-07
  1.354808966601E-07  1.127964269525E-07  9.372582514390E-08  7.772514235747E-08
  6.432705255073E-08  5.313088766707E-08  4.379384438672E-08  3.602324239616E-08
  2.956972403274E-08  2.422129457708E-08  1.979811135114E-08  1.614793812820E-08
  1.314218917460E-08  1.067249452611E-08  8.647724864615E-09  6.991420616272E-09
  5.639575657071E-09  4.538731304701E-09  3.644341118026E-09  2.919371438983E-09
  2.333106622648E-09  1.860131529853E-09  1.479467132259E-09  1.173838023870E-09
  9.290532715208E-10  7.334843933876E-10  5.776263524621E-10  4.537293133387E-10
  3.554905570517E-10  2.777974001147E-10  2.165132394082E-10  1.682999618569E-10
  1.304709334607E-10  1.008696314402E-10  7.776972009173E-11  5.979300823873E-11
  4.584227564760E-11  3.504642802098E-11  2.671584478035E-11  2.030612938107E-11
  1.538876605522E-11  1.162743649087E-11  8.758961096339E-12  6.578007519434E-12
  4.924858705823E-12  3.675658111034E-12  2.734654326894E-12  2.028054471502E-12
  1.499167928836E-12  1.104581743031E-12  8.111581770157E-13  5.936853500296E-13
  4.330449343461E-13  3.147878586426E-13  2.280308826946E-13  1.646046589311E-13
  1.183982223494E-13  8.485637110862E-14  6.059563188871E-14  4.311187487776E-14
  3.055850670032E-14  2.157881677653E-14  1.517972204516E-14  1.063704191147E-14
  7.424696299421E-15  5.161987543848E-15  3.574497953141E-15  2.465199918315E-15
  1.693195541288E-15  1.158133410522E-15  7.888327313352E-16  5.350128265499E-16
  3.613051965410E-16  2.429363389079E-16  1.626283445664E-16  1.083833082354E-16
  7.190640289515E-17  4.748844774231E-17  3.121759880229E-17  2.042573093850E-17
  1.330139158179E-17  8.620499872258E-18  5.559781052412E-18  3.568170478953E-18
  2.278594888382E-18  0.000000000000E+00  0.000000000000E+00  0.000000000000E+00
  0.000000000000E+00
</data>
</radfunc>
</valence-charge>
<pseudocore-charge matching-radius="0.925815378406"
 number-of-continuous-derivatives="4">
<annotation model-charge-form="Teter function with specified parameters" />
<radfunc>
<data npts="290">
  6.291348261582E+01  6.291063909635E+01  6.290213856457E+01  6.288795576868E+01
  6.286823475972E+01  6.284230005753E+01  6.280924054845E+01  6.277137617583E+01
  6.272879103507E+01  6.267911567601E+01  6.262310447826E+01  6.256220179320E+01
  6.248856627887E+01  6.241162513010E+01  6.232081396411E+01  6.223007100765E+01
  6.212551695017E+01  6.202635038203E+01  6.191479780990E+01  6.178933751825E+01
  6.164826764475E+01  6.152290228233E+01  6.138525982873E+01  6.123416830866E+01
  6.106835023647E+01  6.088641447013E+01  6.068684773498E+01  6.052461847189E+01
  6.035080500104E+01  6.016461613144E+01  5.996521216847E+01  5.975170281114E+01
  5.952314510668E+01  5.927854149507E+01  5.901683798291E+01  5.873692249228E+01
  5.843762343804E+01  5.811770859564E+01  5.789234252706E+01  5.765684166482E+01
  5.741079527371E+01  5.715378049421E+01  5.688536246891E+01  5.660509453583E+01
  5.631251849640E+01  5.600716496644E+01  5.568855381902E+01  5.535619472891E+01
  5.500958782881E+01  5.464822448831E+01  5.427158822712E+01  5.387915577487E+01
  5.347039829038E+01  5.304478275377E+01  5.260177354572E+01  5.214083422819E+01
  5.166142954194E+01  5.116302763582E+01  5.064510254381E+01  5.010713692512E+01
  4.954862508291E+01  4.896907627683E+01  4.836801834376E+01  4.774500164032E+01
  4.709960331938E+01  4.643143195106E+01  4.574013249652E+01  4.538571004277E+01
  4.502539164009E+01  4.465914557721E+01  4.428694348181E+01  4.390876051789E+01
  4.352457558870E+01  4.313437154489E+01  4.273813539790E+01  4.233585853838E+01
  4.192753695945E+01  4.151317148459E+01  4.109276799990E+01  4.066633769046E+01
  4.023389728042E+01  3.979546927649E+01  3.935108221445E+01  3.890077090817E+01
  3.844457670062E+01  3.798254771647E+01  3.751473911548E+01  3.704121334620E+01
  3.656204039916E+01  3.607729805887E+01  3.558707215373E+01  3.509145680303E+01
  3.459055466007E+01  3.408447715034E+01  3.357334470384E+01  3.305728698013E+01
  3.253644308520E+01  3.201096177865E+01  3.148100166994E+01  3.094673140226E+01
  3.040832982259E+01  2.986598613629E+01  2.931990004471E+01  2.877028186410E+01
  2.821735262408E+01  2.766134414385E+01  2.710249908443E+01  2.654107097479E+01
  2.597732421019E+01  2.541153402064E+01  2.484398640750E+01  2.427497804621E+01
  2.370481615322E+01  2.313381831495E+01  2.256231227702E+01  2.199063569155E+01
  2.141913582083E+01  2.084816919539E+01  2.027810122476E+01  1.970930575925E+01
  1.914216460120E+01  1.857706696432E+01  1.801440887988E+01  1.745459254873E+01
  1.689802563826E+01  1.634512052381E+01  1.579629347416E+01  1.525196378107E+01
  1.471255283322E+01  1.417848313521E+01  1.365017727262E+01  1.312805682468E+01
  1.261254122629E+01  1.210404658195E+01  1.160298443433E+01  1.110976049088E+01
  1.062477331243E+01  1.014841296816E+01  9.681059662155E+00  9.223082336948E+00
  8.774837260496E+00  8.336666603227E+00  7.908897012663E+00  7.491838193565E+00
  7.085781502145E+00  6.690998563428E+00  6.307739921346E+00  5.936233731589E+00
  5.576684507670E+00  5.229271930972E+00  4.894149735839E+00  4.571444680947E+00
  4.261255618257E+00  3.963652670888E+00  3.678676531042E+00  3.406337888918E+00
  3.146617003099E+00  2.899463422384E+00  2.664795868314E+00  2.442502286811E+00
  2.232440076275E+00  2.034436498351E+00  1.848289276172E+00  1.673767383376E+00
  1.510612025511E+00  1.358537813613E+00  1.217234127733E+00  1.086366666141E+00
  9.655791736848E-01  8.544953405273E-01  7.527208601472E-01  6.598456331230E-01
  5.754461008974E-01  4.990876914269E-01  4.303273564402E-01  3.687161779895E-01
  3.138020201256E-01  2.651321999169E-01  2.222561507127E-01  1.847280495573E-01
  1.521093800587E-01  1.239714018321E-01  9.989749791193E-02  7.948537229842E-02
  6.234907108023E-02  4.812080238639E-02  3.645253275230E-02  2.701734033807E-02
  1.951050878183E-02  1.365034927034E-02  9.178742608953E-03  5.861397605735E-03
  3.487826865356E-03  1.871046021646E-03  8.470074129962E-04  2.737841030248E-04
  3.052484289275E-05  1.620493012306E-05  1.482018103481E-04  3.607275658202E-04
  6.031530194493E-04  8.382599512604E-04  1.040458790171E-03  1.194009046501E-03
  1.291278656667E-03  1.331076320337E-03  1.317087856216E-03  1.256443656802E-03
  1.158439592712E-03  1.033428347352E-03  8.918923282600E-04  7.437032055094E-04
  5.975669929973E-04  4.606476497323E-04  3.383566711419E-04  2.342912907539E-04
  1.502999245697E-04  8.665053487670E-05  4.227579372701E-05  1.506836181656E-05
  2.200278281168E-06  4.423284937391E-07  6.462202603812E-06  1.708409804985E-05
  2.949692165015E-05  4.140313655092E-05  5.110527582651E-05  5.753190031234E-05
  6.020901920907E-05  5.918645854949E-05  5.493114957725E-05  4.820068260029E-05
  3.991068180330E-05  3.100864265519E-05  2.236496479663E-05  1.468921887197E-05
  8.476478956017E-06  3.985147270739E-06  1.244421880354E-06  8.672011125890E-08
  1.982311719892E-07  1.179515941686E-06  2.607789461195E-06  4.093195069804E-06
  5.322885331423E-06  6.088847965771E-06  6.297870667368E-06  5.964508183682E-06
  5.190084590317E-06  4.132365032729E-06  2.971377292951E-06  1.876874747092E-06
  9.821482155174E-07  3.674687590153E-07  5.462262765279E-08  0.000000000000E+00
  0.000000000000E+00  0.000000000000E+00  0.000000000000E+00  0.000000000000E+00
  0.000000000000E+00  0.000000000000E+00  0.000000000000E+00  0.000000000000E+00
  0.000000000000E+00  0.000000000000E+00  0.000000000000E+00  0.000000000000E+00
  0.000000000000E+00  0.000000000000E+00  0.000000000000E+00  0.000000000000E+00
  0.000000000000E+00  0.000000000000E+00  0.000000000000E+00  0.000000000000E+00
  0.000000000000E+00  0.000000000000E+00  0.000000000000E+00  0.000000000000E+00
  0.000000000000E+00  0.000000000000E+00  0.000000000000E+00  0.000000000000E+00
  0.000000000000E+00  0.000000000000E+00  0.000000000000E+00  0.000000000000E+00
  0.000000000000E+00  0.000000000000E+00
</data>
</radfunc>
</pseudocore-charge>
<semilocal-potentials set="scalar_relativistic">
<slps n="5" l="s" rc="2.10852984796">
<radfunc>
<data npts="290">
  6.063531883259E+00  6.060304727396E+00  6.050662805402E+00  6.034593840372E+00
  6.012287873033E+00  5.983020389182E+00  5.945821889159E+00  5.903366900009E+00
  5.855809084933E+00  5.800586158985E+00  5.738644445763E+00  5.671680832537E+00
  5.591251729841E+00  5.507831107959E+00  5.410177635881E+00  5.313458238331E+00
  5.203071326483E+00  5.099400876274E+00  4.983961851757E+00  4.855601239380E+00
  4.713099156889E+00  4.588058225041E+00  4.452472925246E+00  4.305653070964E+00
  4.146901638663E+00  3.975523122901E+00  3.790833594177E+00  3.643182522256E+00
  3.487406146899E+00  3.323254308544E+00  3.150496302483E+00  2.968925246130E+00
  2.778362765823E+00  2.578663974265E+00  2.369722698227E+00  2.151476903696E+00
  1.923914252526E+00  1.687077711097E+00  1.524083130459E+00  1.357058526204E+00
  1.186064605685E+00  1.011176521597E+00  8.324844914046E-01  6.500943706789E-01
  4.641281722560E-01  2.747245230153E-01  8.203905014560E-02 -1.137553111047E-01
 -3.124680959240E-01 -5.138911820321E-01 -7.177987622241E-01 -9.239474235973E-01
 -1.132076338979E+00 -1.341907575247E+00 -1.553146522354E+00 -1.765482445883E+00
 -1.978589165005E+00 -2.192125856664E+00 -2.405737985864E+00 -2.619058360987E+00
 -2.831708312226E+00 -3.043298990519E+00 -3.253432783800E+00 -3.461704847053E+00
 -3.667704742487E+00 -3.871018186347E+00 -4.071228899199E+00 -4.170040576650E+00
 -4.267920557275E+00 -4.364817130154E+00 -4.460678843380E+00 -4.555454573591E+00
 -4.649093597086E+00 -4.741545662547E+00 -4.832761065400E+00 -4.922690723861E+00
 -5.011286256704E+00 -5.098500062810E+00 -5.184285402567E+00 -5.268596481172E+00
 -5.351388533925E+00 -5.432617913606E+00 -5.512242180004E+00 -5.590220191715E+00
 -5.666512200313E+00 -5.741079946990E+00 -5.813886761793E+00 -5.884897665568E+00
 -5.954079474737E+00 -6.021400909020E+00 -6.086832702215E+00 -6.150347716158E+00
 -6.211921057935E+00 -6.271530200450E+00 -6.329155106375E+00 -6.384778355529E+00
 -6.438385275641E+00 -6.489964076428E+00 -6.539505986840E+00 -6.587005395248E+00
 -6.632459992226E+00 -6.675870915498E+00 -6.717242896450E+00 -6.756584407458E+00
 -6.793907809102E+00 -6.829229496165E+00 -6.862570041006E+00 -6.893954332816E+00
 -6.923411710850E+00 -6.950976089589E+00 -6.976686073502E+00 -7.000585058790E+00
 -7.022721319321E+00 -7.043148073699E+00 -7.061923530268E+00 -7.079110906698E+00
 -7.094778420713E+00 -7.108999248531E+00 -7.121851447576E+00 -7.133417840191E+00
 -7.143785855244E+00 -7.153047324783E+00 -7.161298233270E+00 -7.168638417273E+00
 -7.175171214024E+00 -7.181003057725E+00 -7.186243023064E+00 -7.191002315980E+00
 -7.195393712324E+00 -7.199530945687E+00 -7.203528046248E+00 -7.207498633121E+00
 -7.211555163243E+00 -7.215808140428E+00 -7.220365288706E+00 -7.225330694622E+00
 -7.230803923627E+00 -7.236879116116E+00 -7.243644069171E+00 -7.251179310348E+00
 -7.259557170331E+00 -7.268840861500E+00 -7.279083569863E+00 -7.290327568045E+00
 -7.302603357309E+00 -7.315928846921E+00 -7.330308579424E+00 -7.345733010834E+00
 -7.362177855179E+00 -7.379603503489E+00 -7.397954528105E+00 -7.417159284216E+00
 -7.437129621878E+00 -7.457760723288E+00 -7.478931081914E+00 -7.500502641945E+00