<?xml version="1.0" encoding="UTF-8" ?>
<psml version="1.1" energy_unit="hartree" length_unit="bohr"
 uuid="9fbd9da0-4224-11e8-5b2e-0588bfd3c803"
 xmlns="http://esl.cecam.org/PSML/ns/1.1">
<provenance creator="ONCVPSP-3.3.0+psml-3.3.0-73 (fully-relativistic)"
 date="2018-04-17">
<annotation action="semilocal-pseudopotential-generation"
 action-cont="projectors-generation" />
<input-file name="oncvpsp-input">
<![CDATA[# atsym z nc nv iexc psfile
Mo 42 6 4 4 both
# n l f
1 0 2.0
2 0 2.0
2 1 6.0
3 0 2.0
3 1 6.0
3 2 10.0
4 0 2.0
4 1 6.0
4 2 5.0
5 0 1.0
# lmax
2
# l rc ep ncon nbas qcut
0 1.45 0.0 4 7 8.2
1 1.45 0.0 4 7 8.8
2 1.35 0.0 4 7 8.8
# lloc lpopt rc5 dvloc0
4 5 1.25 0.0
# l nproj debl
0 2 1.0
1 2 2.0
2 2 2.0
# icmod fcfact
3 3 1.3
# epsh1 epsh2 depsh
-12.0 12.0 0.02
# rlmax drl
6.0 0.01
 0
]]>
</input-file>
</provenance>
<pseudo-atom-spec atomic-label="Mo" atomic-number="42" z-pseudo="14"
 flavor="Hamann&apos;s oncvpsp" relativity="dirac" spin-dft="no"
 core-corrections="yes">
<annotation pseudo-energy="-68.0617529633" />
<exchange-correlation>
<annotation oncvpsp-xc-code="4" oncvpsp-xc-type="GGA -- Perdew-Burke-Ernzerhof" />
<libxc-info number-of-functionals="2">
<functional name="Perdew, Burke &amp; Ernzerhof (GGA)" type="exchange" id="101" />
<functional name="Perdew, Burke &amp; Ernzerhof (GGA)" type="correlation"
 id="130" />
</libxc-info>
</exchange-correlation>
<valence-configuration total-valence-charge="14">
<shell n="4" l="s" occupation="2" />
<shell n="4" l="p" occupation="6" />
<shell n="4" l="d" occupation="5" />
<shell n="5" l="s" occupation="1" />
</valence-configuration>
</pseudo-atom-spec>
<grid npts="457">
<annotation type="sampled from oncvpsp log grid"
 recipe="r(i:1..N) = r1*exp(a*(i-1)) + r=0; resampled"
 recipe-cont="r1: scale; a: step" scale="0.119047619048E-04"
 step="0.119285708653E-01" delta="0.500000000000E-02" rmax="44.1174669210" />
<grid-data>
  0.000000000000E+00  5.037795722915E-03  1.006260160451E-02  1.509550699367E-02
  2.009925702039E-02  2.521214181819E-02  3.051391565380E-02  3.563236135451E-02
  4.111599021390E-02  4.632504811410E-02  5.157514903245E-02  5.673938074985E-02
  6.242070819516E-02  6.785662873951E-02  7.289124265956E-02  7.829939911767E-02
  8.410881305485E-02  8.927792067056E-02  9.476470811758E-02  1.005886991673E-01
  1.067706174709E-01  1.119885971355E-01  1.174615843333E-01  1.232020415203E-01
  1.292230402044E-01  1.355382907102E-01  1.421621733986E-01  1.473416713561E-01
  1.527098777334E-01  1.582736678816E-01  1.640401676468E-01  1.700167624959E-01
  1.762111069761E-01  1.826311345182E-01  1.892850675976E-01  1.961814282649E-01
  2.033290490610E-01  2.107370843290E-01  2.158251204930E-01  2.210360022022E-01
  2.263726954394E-01  2.318382377981E-01  2.374357402114E-01  2.431683887231E-01
  2.490394463004E-01  2.550522546919E-01  2.612102363292E-01  2.675168962751E-01
  2.739758242188E-01  2.805906965187E-01  2.873652782955E-01  2.943034255747E-01
  3.014090874817E-01  3.086863084899E-01  3.161392307221E-01  3.237720963086E-01
  3.315892498019E-01  3.395951406491E-01  3.477943257249E-01  3.561914719253E-01
  3.647913588234E-01  3.735988813908E-01  3.826190527831E-01  3.918570071935E-01
  4.013180027752E-01  4.110074246342E-01  4.209307878946E-01  4.259819573493E-01
  4.310937408375E-01  4.362668657276E-01  4.415020681163E-01  4.468000929337E-01
  4.521616940489E-01  4.575876343775E-01  4.630786859900E-01  4.686356302219E-01
  4.742592577846E-01  4.799503688780E-01  4.857097733045E-01  4.915382905842E-01
  4.974367500712E-01  5.034059910720E-01  5.094468629649E-01  5.155602253205E-01
  5.217469480243E-01  5.280079114006E-01  5.343440063374E-01  5.407561344135E-01
  5.472452080264E-01  5.538121505228E-01  5.604578963290E-01  5.671833910850E-01
  5.739895917780E-01  5.808774668793E-01  5.878479964819E-01  5.949021724397E-01
  6.020409985089E-01  6.092654904910E-01  6.165766763769E-01  6.239755964935E-01
  6.314633036514E-01  6.390408632952E-01  6.467093536547E-01  6.544698658986E-01
  6.623235042894E-01  6.702713863409E-01  6.783146429769E-01  6.864544186927E-01
  6.946918717170E-01  7.030281741776E-01  7.114645122677E-01  7.200020864149E-01
  7.286421114519E-01  7.373858167893E-01  7.462344465908E-01  7.551892599499E-01
  7.642515310693E-01  7.734225494421E-01  7.827036200354E-01  7.920960634759E-01
  8.016012162376E-01  8.112204308324E-01  8.209550760024E-01  8.308065369144E-01
  8.407762153574E-01  8.508655299417E-01  8.610759163010E-01  8.714088272966E-01
  8.818657332242E-01  8.924481220229E-01  9.031574994871E-01  9.139953894810E-01
  9.249633341547E-01  9.360628941646E-01  9.472956488946E-01  9.586631966813E-01
  9.701671550415E-01  9.818091609020E-01  9.935908708328E-01  1.005513961283E+00
  1.017580128818E+00  1.029791090364E+00  1.042148583448E+00  1.054654366450E+00
  1.067310218847E+00  1.080117941473E+00  1.093079356771E+00  1.106196309052E+00
  1.119470664761E+00  1.132904312738E+00  1.146499164491E+00  1.160257154465E+00
  1.174180240318E+00  1.188270403202E+00  1.202529648041E+00  1.216960003817E+00
  1.231563523863E+00  1.246342286149E+00  1.261298393583E+00  1.276433974306E+00
  1.291751181998E+00  1.307252196182E+00  1.322939222536E+00  1.338814493206E+00
  1.354880267125E+00  1.371138830330E+00  1.387592496294E+00  1.404243606250E+00
  1.421094529525E+00  1.438147663879E+00  1.455405435846E+00  1.472870301076E+00
  1.490544744689E+00  1.508431281625E+00  1.526532457004E+00  1.544850846488E+00
  1.563389056646E+00  1.582149725326E+00  1.601135522030E+00  1.620349148294E+00
  1.639793338074E+00  1.659470858131E+00  1.679384508428E+00  1.699537122529E+00
  1.719931568000E+00  1.740570746816E+00  1.761457595778E+00  1.782595086927E+00
  1.803986227970E+00  1.825634062706E+00  1.847541671458E+00  1.869712171516E+00
  1.892148717574E+00  1.914854502185E+00  1.937832756211E+00  1.961086749286E+00
  1.984619790277E+00  2.008435227760E+00  2.032536450493E+00  2.056926887899E+00
  2.081610010554E+00  2.106589330681E+00  2.131868402649E+00  2.157450823481E+00
  2.183340233362E+00  2.209540316163E+00  2.236054799957E+00  2.262887457556E+00
  2.290042107047E+00  2.317522612331E+00  2.345332883679E+00  2.373476878284E+00
  2.401958600823E+00  2.430782104033E+00  2.459951489281E+00  2.489470907153E+00
  2.519344558039E+00  2.549576692735E+00  2.580171613048E+00  2.611133672404E+00
  2.642467276473E+00  2.674176883791E+00  2.706267006396E+00  2.738742210473E+00
  2.771607116999E+00  2.804866402403E+00  2.838524799232E+00  2.872587096822E+00
  2.907058141984E+00  2.941942839688E+00  2.977246153764E+00  3.012973107610E+00
  3.049128784901E+00  3.085718330320E+00  3.122746950283E+00  3.160219913687E+00
  3.198142552651E+00  3.236520263283E+00  3.275358506442E+00  3.314662808520E+00
  3.354438762222E+00  3.394692027369E+00  3.435428331697E+00  3.476653471677E+00
  3.518373313337E+00  3.560593793097E+00  3.603320918615E+00  3.646560769638E+00
  3.690319498874E+00  3.734603332860E+00  3.779418572855E+00  3.824771595729E+00
  3.870668854878E+00  3.917116881136E+00  3.964122283710E+00  4.011691751114E+00
  4.059832052128E+00  4.108550036753E+00  4.157852637194E+00  4.207746868840E+00
  4.258239831267E+00  4.309338709242E+00  4.361050773753E+00  4.413383383038E+00
  4.466343983634E+00  4.519940111438E+00  4.574179392775E+00  4.629069545488E+00
  4.684618380034E+00  4.740833800595E+00  4.797723806202E+00  4.855296491876E+00
  4.913560049779E+00  4.972522770376E+00  5.032193043620E+00  5.092579360144E+00
  5.153690312466E+00  5.215534596215E+00  5.278121011370E+00  5.341458463506E+00
  5.405555965068E+00  5.470422636649E+00  5.536067708289E+00  5.602500520788E+00
  5.669730527038E+00  5.737767293362E+00  5.806620500883E+00  5.876299946893E+00
  5.946815546256E+00  6.018177332811E+00  6.090395460805E+00  6.163480206334E+00
  6.237441968810E+00  6.312291272436E+00  6.388038767705E+00  6.464695232918E+00
  6.542271575713E+00  6.620778834621E+00  6.700228180637E+00  6.780630918805E+00
  6.861998489830E+00  6.944342471708E+00  7.027674581369E+00  7.112006676345E+00
  7.197350756461E+00  7.283718965539E+00  7.371123593125E+00  7.459577076243E+00
  7.549092001158E+00  7.639681105172E+00  7.731357278434E+00  7.824133565775E+00
  7.918023168564E+00  8.013039446587E+00  8.109195919946E+00  8.206506270985E+00
  8.304984346237E+00  8.404644158392E+00  8.505499888293E+00  8.607565886952E+00
  8.710856677596E+00  8.815386957727E+00  8.921171601219E+00  9.028225660434E+00
  9.136564368359E+00  9.246203140780E+00  9.357157578469E+00  9.469443469411E+00
  9.583076791044E+00  9.698073712536E+00  9.814450597086E+00  9.932224004252E+00
  1.005141069230E+01  1.017202762061E+01  1.029409195206E+01  1.041762105548E+01
  1.054263250815E+01  1.066914409825E+01  1.079717382742E+01  1.092673991335E+01
  1.105786079231E+01  1.119055512182E+01  1.132484178328E+01  1.146073988468E+01
  1.159826876330E+01  1.173744798846E+01  1.187829736432E+01  1.202083693269E+01
  1.216508697588E+01  1.231106801960E+01  1.245880083583E+01  1.260830644586E+01
  1.275960612321E+01  1.291272139669E+01  1.306767405345E+01  1.322448614209E+01
  1.338317997580E+01  1.354377813551E+01  1.370630347313E+01  1.387077911481E+01
  1.403722846419E+01  1.420567520576E+01  1.437614330823E+01  1.454865702792E+01
  1.472324091226E+01  1.489991980321E+01  1.507871884085E+01  1.525966346694E+01
  1.544277942854E+01  1.562809278168E+01  1.581562989506E+01  1.600541745380E+01
  1.619748246325E+01  1.639185225281E+01  1.658855447984E+01  1.678761713360E+01
  1.698906853920E+01  1.719293736167E+01  1.739925261001E+01  1.760804364133E+01
  1.781934016503E+01  1.803317224701E+01  1.824957031397E+01  1.846856515774E+01
  1.869018793963E+01  1.891447019491E+01  1.914144383725E+01  1.937114116329E+01
  1.960359485725E+01  1.983883799554E+01  2.007690405149E+01  2.031782690011E+01
  2.056164082291E+01  2.080838051278E+01  2.105808107894E+01  2.131077805188E+01
  2.156650738851E+01  2.182530547717E+01  2.208720914289E+01  2.235225565261E+01
  2.262048272044E+01  2.289192851308E+01  2.316663165524E+01  2.344463123510E+01
  2.372596680993E+01  2.401067841164E+01  2.429880655258E+01  2.459039223122E+01
  2.488547693799E+01  2.518410266125E+01  2.548631189318E+01  2.579214763590E+01
  2.610165340753E+01  2.641487324842E+01  2.673185172740E+01  2.705263394813E+01
  2.737726555551E+01  2.770579274217E+01  2.803826225508E+01  2.837472140214E+01
  2.871521805897E+01  2.905980067567E+01  2.940851828378E+01  2.976142050319E+01
  3.011855754923E+01  3.047998023982E+01  3.084574000269E+01  3.121588888273E+01
  3.159047954932E+01  3.196956530391E+01  3.235320008756E+01  3.274143848861E+01
  3.313433575047E+01  3.353194777948E+01  3.393433115283E+01  3.434154312667E+01
  3.475364164419E+01  3.517068534392E+01  3.559273356804E+01  3.601984637086E+01
  3.645208452731E+01  3.688950954164E+01  3.733218365614E+01  3.778016986001E+01
  3.823353189833E+01  3.869233428111E+01  3.915664229248E+01  3.962652199999E+01
  4.010204026399E+01  4.058326474716E+01  4.107026392413E+01  4.156310709122E+01
  4.206186437631E+01  4.256660674883E+01  4.307740602981E+01  4.359433490217E+01
  4.411746692100E+01
</grid-data>
</grid>
<valence-charge total-charge="14" is-unscreening-charge="yes"
 rescaled-to-z-pseudo="no">
<radfunc>
<data npts="457">
  4.274361391904E-02  4.315144112550E-02  4.437137981756E-02  4.640934579472E-02
  4.924840460332E-02  5.299135769268E-02  5.777798790565E-02  6.328149974247E-02
  7.014986094185E-02  7.761707046686E-02  8.608527778520E-02  9.535134501426E-02
  1.066356104769E-01  1.185208672351E-01  1.304958238244E-01  1.444153258846E-01
  1.606111764405E-01  1.761280423782E-01  1.937632800342E-01  2.138243094326E-01
  2.366671523487E-01  2.572197229645E-01  2.800574914259E-01  3.054533696069E-01
  3.337156816736E-01  3.651930341747E-01  4.002798354592E-01  4.292300512231E-01
  4.606702827405E-01  4.948308092852E-01  5.319643878208E-01  5.723483916770E-01
  6.162871032832E-01  6.641141559778E-01  7.161951141034E-01  7.729301730768E-01
  8.347569515256E-01  9.021533355105E-01  9.504339064768E-01  1.001586052734E+00
  1.055784772952E+00  1.113214804686E+00  1.174070921004E+00  1.238558188024E+00
  1.306892172524E+00  1.379299087147E+00  1.456015858926E+00  1.537290104889E+00
  1.623379996382E+00  1.714553991420E+00  1.811090411955E+00  1.913276840314E+00
  2.021409306386E+00  2.135791234285E+00  2.256732114436E+00  2.384545864175E+00
  2.519548837281E+00  2.662057440328E+00  2.812385311591E+00  2.970840016523E+00
  3.137719212786E+00  3.313306237630E+00  3.497865071364E+00  3.691634632970E+00
  3.894822368013E+00  4.107597095104E+00  4.330081085828E+00  4.444987412200E+00
  4.562341364607E+00  4.682141133528E+00  4.804380229853E+00  4.929047147717E+00
  5.056125016573E+00  5.185591243087E+00  5.317417143616E+00  5.451567568121E+00
  5.588000516548E+00  5.726666748857E+00  5.867509390049E+00  6.010463531733E+00
  6.155455831958E+00  6.302404115229E+00  6.451216974875E+00  6.601793380105E+00
  6.754022290362E+00  6.907782279806E+00  7.062941174986E+00  7.219355709041E+00
  7.376871195972E+00  7.535321228835E+00  7.694527405882E+00  7.854299088988E+00
  8.014433198879E+00  8.174714051919E+00  8.334913243419E+00  8.494789582608E+00
  8.654089084553E+00  8.812545024452E+00  8.969878059805E+00  9.125796426007E+00
  9.279996210922E+00  9.432161713900E+00  9.581965894614E+00  9.729070916872E+00
  9.873128792300E+00  1.001378212845E+01  1.015066498539E+01  1.028340384445E+01
  1.041161869182E+01  1.053492421947E+01  1.065293114441E+01  1.076524764686E+01
  1.087148092648E+01  1.097123887469E+01  1.106413185994E+01  1.114977462115E+01
  1.122778826322E+01  1.129780234675E+01  1.135945706255E+01  1.141240547966E+01
  1.145631585390E+01  1.149087398213E+01  1.151578558562E+01  1.153077870397E+01
  1.153560607969E+01  1.153004751163E+01  1.151391215397E+01  1.148704073654E+01
  1.144930768066E+01  1.140062308437E+01  1.134093455004E+01  1.127022882740E+01
  1.118853324513E+01  1.109591690480E+01  1.099249161210E+01  1.087841252166E+01
  1.075387847394E+01  1.061913200509E+01  1.047445901365E+01  1.032018807154E+01
  1.015668937057E+01  9.984373299957E+00  9.803688655283E+00  9.615120483895E+00
  9.419187577159E+00  9.216439625131E+00  9.007454054455E+00  8.792832575486E+00
  8.573197469521E+00  8.349187651607E+00  8.121454548455E+00  7.890657834499E+00
  7.657461071903E+00  7.422527302304E+00  7.186514639177E+00  6.950071909870E+00
  6.713834395569E+00  6.478419715756E+00  6.244423901074E+00  6.012417695136E+00
  5.782943121765E+00  5.556510349827E+00  5.333594883029E+00  5.114635096719E+00
  4.900030138561E+00  4.690137991609E+00  4.485273013088E+00  4.285703419798E+00
  4.091650941250E+00  3.903291877430E+00  3.720757929208E+00  3.544138759660E+00
  3.373488850526E+00  3.208836793730E+00  3.050188012212E+00  2.897525346457E+00
  2.750811267571E+00  2.609989485723E+00  2.474986634505E+00  2.345713915366E+00
  2.222068701841E+00  2.103936096651E+00  1.991190434909E+00  1.883696727769E+00
  1.781312041778E+00  1.683886810063E+00  1.591266072357E+00  1.503290641609E+00
  1.419798195717E+00  1.340624293568E+00  1.265603315249E+00  1.194569326827E+00
  1.127356870678E+00  1.063801682765E+00  1.003741338717E+00  9.470158309236E-01
  8.934680791632E-01  8.429443775534E-01  7.952947808363E-01  7.503734331769E-01
  7.080388427856E-01  6.681541057681E-01  6.305870826572E-01  5.952105311093E-01
  5.619021981995E-01  5.305448757614E-01  5.010264221644E-01  4.732397537200E-01
  4.470828089328E-01  4.224584886228E-01  3.992745748233E-01  3.774436312084E-01
  3.568828876517E-01  3.375141113542E-01  3.192634668141E-01  3.020613667488E-01
  2.858423159069E-01  2.705447495530E-01  2.561108682398E-01  2.424864703339E-01
  2.296207836082E-01  2.174662970737E-01  2.059785940875E-01  1.951161876470E-01
  1.848403586595E-01  1.751149978662E-01  1.659064519953E-01  1.571833746223E-01
  1.489165821290E-01  1.410789150705E-01  1.336451051855E-01  1.265916482209E-01
  1.198966826770E-01  1.135398745299E-01  1.075023079364E-01  1.017663818857E-01
  9.631571272375E-02  9.113504244525E-02  8.621015261891E-02  8.152778378987E-02
  7.707556018299E-02  7.284191951592E-02  6.881604771860E-02  6.498781834733E-02
  6.134773647556E-02  5.788688684027E-02  5.459688602189E-02  5.146983843676E-02
  4.849829592372E-02  4.567522071082E-02  4.299395155339E-02  4.044817284118E-02
  3.803188647919E-02  3.573938635454E-02  3.356523520920E-02  3.150424374672E-02
  2.955145180870E-02  2.770211146431E-02  2.595167186404E-02  2.429576571539E-02
  2.273019724540E-02  2.125093152104E-02  1.985408500476E-02  1.853591722803E-02
  1.729282347237E-02  1.612132834875E-02  1.501808017978E-02  1.397984608589E-02
  1.300350768698E-02  1.208605733529E-02  1.122459480113E-02  1.041632433867E-02
  9.658552065282E-03  8.948683593534E-03  8.284221861177E-03  7.662765110466E-03
  7.082004974002E-03  6.539724630121E-03  6.033796996412E-03  5.562182935271E-03
  5.122929450386E-03  4.714167857714E-03  4.334111918764E-03  3.981055927843E-03
  3.653372748379E-03  3.349511796423E-03  3.067996972017E-03  2.807424541314E-03
  2.566460974101E-03  2.343840742805E-03  2.138364090143E-03  1.948894773322E-03
  1.774357793184E-03  1.613737116910E-03  1.466073402877E-03  1.330461736083E-03
  1.206049382175E-03  1.092033567625E-03  9.876592929876E-04  8.922171854747E-04
  8.050413963664E-04  7.255075479646E-04  6.530307340421E-04  5.870635769515E-04
  5.270943438189E-04  4.726451235497E-04  4.232700657303E-04  3.785536819369E-04
  3.381092094607E-04  3.015770370357E-04  2.686231918055E-04  2.389378864975E-04
  2.122341255653E-04  1.882463689247E-04  1.667292518237E-04  1.474563593495E-04
  1.302190540766E-04  1.148253553869E-04  1.010988690413E-04  8.887776564002E-05
  7.801380667341E-05  6.837141692439E-05  5.982680204239E-05  5.226711015352E-05
  4.558963640803E-05  3.970106938965E-05  3.451677832215E-05  2.996014000837E-05
  2.596190442547E-05  2.245959788082E-05  1.939696260616E-05  1.672343163657E-05
  1.439363778663E-05  1.236695550175E-05  1.060707432915E-05  9.081602722625E-06
  7.761700868635E-06  6.621741200561E-06  5.638995253172E-06  4.793345501281E-06
  4.067020825831E-06  3.444354256974E-06  2.911561657168E-06  2.456540027673E-06
  2.068684148547E-06  1.738720294871E-06  1.458555809849E-06  1.221143357935E-06
  1.020358727532E-06  8.508911024079E-07  7.081447729944E-07  5.881513125720E-07
  4.874912982709E-07  4.032247122673E-07  3.328292139453E-07  2.741455286339E-07
  2.253292523639E-07  1.848084245440E-07  1.512462711997E-07  1.235085701873E-07
  1.006351363770E-07  8.181496903029E-08  6.636464537380E-08  5.370958361087E-08
  4.336783529616E-08  3.493610112146E-08  2.807769575845E-08  2.251221653199E-08
  1.800669743341E-08  1.436805442092E-08  1.143665020037E-08  9.080826850201E-09
  7.192272872340E-09  5.682107642589E-09  4.477580927519E-09  3.519298257826E-09
  2.758894626032E-09  2.157089331258E-09  1.682063943256E-09  1.308113413941E-09
  1.014527433579E-09  7.846653101455E-10  6.051930372624E-10  4.654558947196E-10
  3.569639752873E-10  2.729715251141E-10  2.081339886981E-10  1.582292232812E-10
  1.199315456109E-10  9.062914505406E-11  6.827698425748E-11  5.127864992225E-11
  3.839174753209E-11  2.865238888001E-11  2.131508578149E-11  1.461085807109E-11
  8.525022509380E-12  6.268797716140E-12  4.593997238103E-12  3.355038501229E-12
  2.441669696567E-12  1.770683875848E-12  1.279504210541E-12  9.212353403797E-13
  6.608593241782E-13  4.723219752957E-13  3.363092982455E-13  2.385568216115E-13
  1.685688990186E-13  1.186522178135E-13  8.318920485553E-14  5.809388743642E-14
  4.040598067095E-14  2.798928138264E-14  1.930845855634E-14  1.326452898939E-14
  9.074083734415E-15  6.180996987487E-15  4.192150735979E-15  2.830840446633E-15
  1.903142451536E-15  1.273742333837E-15  8.486389252471E-16  5.628229552577E-16
  3.715388797994E-16  2.441159589366E-16  1.596331369499E-16  1.038867416333E-16
  6.727943348662E-17  4.335750212427E-17  2.780226808731E-17  1.773797710040E-17
  1.125925425359E-17  7.110013763019E-18  4.466421003432E-18  2.790936765624E-18
  1.734657967039E-18  1.072317254976E-18  6.592498510471E-19  4.030560809856E-19
  2.450420667434E-19  1.481310965196E-19  8.903332386126E-20  5.320220998804E-20
  3.160436795615E-20  1.866268565201E-20  1.095417402060E-20  6.390459367652E-21
  3.705096760047E-21  2.134763355051E-21  1.222221351683E-21  6.952910318197E-22
  3.929766336085E-22  0.000000000000E+00  0.000000000000E+00  0.000000000000E+00
  0.000000000000E+00
</data>
</radfunc>
</valence-charge>
<pseudocore-charge matching-radius="0.755189259950"
 number-of-continuous-derivatives="4">
<annotation model-charge-form="Teter function with specified parameters" />
<radfunc>
<data npts="290">
  3.425825995112E+01  3.425540994522E+01  3.424689062739E+01  3.423267850530E+01
  3.421292091206E+01  3.418694552561E+01  3.415384639030E+01  3.411595348164E+01
  3.406890504344E+01  3.401805418941E+01  3.396075763732E+01  3.389850555549E+01
  3.382330562030E+01  3.374480830633E+01  3.366643365860E+01  3.357620939149E+01
  3.347238145509E+01  3.337403077749E+01  3.326354406521E+01  3.313946992643E+01
  3.300019578744E+01  3.287663703573E+01  3.274120672083E+01  3.259281916915E+01
  3.243030094540E+01  3.225238623660E+01  3.205771257590E+01  3.189983312130E+01
  3.173105078574E+01  3.155067707686E+01  3.135798993647E+01  3.115223370981E+01
  3.093261943707E+01  3.069832552897E+01  3.044849889596E+01  3.018225660891E+01
  2.989868817777E+01  2.959685854405E+01  2.938502238573E+01  2.916435827818E+01
  2.893457639214E+01  2.869538529086E+01  2.844649287582E+01  2.818760744852E+01
  2.791843889688E+01  2.763870001463E+01  2.734810796212E+01  2.704638587721E+01
  2.673326464421E+01  2.640848482918E+01  2.607179878885E+01  2.572297296008E+01
  2.536179033576E+01  2.498805313203E+01  2.460158565001E+01  2.420223733386E+01
  2.378988602449E+01  2.336444140587E+01  2.292584863810E+01  2.247409216759E+01
  2.200919970109E+01  2.153124632543E+01  2.104035875021E+01  2.053671964431E+01
  2.002057203148E+01  1.949222370261E+01  1.895205159541E+01  1.867766938367E+01
  1.840050608332E+01  1.812063014354E+01  1.783811510769E+01  1.755303972847E+01
  1.726548807739E+01  1.697554964788E+01  1.668331945121E+01  1.638889810432E+01
  1.609239190880E+01  1.579391292015E+01  1.549357900618E+01  1.519151389384E+01
  1.488784720333E+01  1.458271446849E+01  1.427625714251E+01  1.396862258778E+01
  1.365996404890E+01  1.335044060770E+01  1.304021711921E+01  1.272946412744E+01
  1.241835775999E+01  1.210707960027E+01  1.179581653637E+01  1.148476058559E+01
  1.117410869355E+01  1.086406250700E+01  1.055482811957E+01  1.024661578941E+01
  9.939639628270E+00  9.634117261272E+00  9.330269456899E+00  9.028319726824E+00
  8.728493895358E+00  8.431019638418E+00  8.136125992123E+00  7.844042831285E+00
  7.555000318275E+00  7.269228322966E+00  6.986955814675E+00  6.708410227293E+00
  6.433816799030E+00  6.163397888507E+00  5.897372269182E+00  5.635954404434E+00
  5.379353705905E+00  5.127773778027E+00  4.881411651996E+00  4.640457012758E+00
  4.405091422896E+00  4.175487547650E+00  3.951808385569E+00  3.734206509643E+00
  3.522823323988E+00  3.317788341474E+00  3.119218487878E+00  2.927217438355E+00
  2.741874992199E+00  2.563266491970E+00  2.391452293138E+00  2.226477290405E+00
  2.068370506847E+00  1.917144751851E+00  1.772796353709E+00  1.635304972391E+00
  1.504633497744E+00  1.380728037874E+00  1.263518002002E+00  1.152916281417E+00
  1.048819531517E+00  9.511085570548E-01  8.596488019043E-01  7.742909436388E-01
  6.948715921968E-01  6.212140907882E-01  5.531294160166E-01  4.904171729673E-01
  4.328666797515E-01  3.802581347154E-01  3.323638582454E-01  2.889495998419E-01
  2.497758999178E-01  2.145994946332E-01  1.831747510180E-01  1.552551187038E-01
  1.305945837903E-01  1.089491097570E-01  9.007804990638E-02  7.374551562588E-02
  5.972168479617E-02  4.778403497697E-02  3.771848657806E-02  2.932044208494E-02
  2.239570855785E-02  1.676129205699E-02  1.224605435623E-02  8.691224274045E-03
  5.950758148763E-03  3.891546381179E-03  2.393465519602E-03  1.349278020137E-03
  6.643845221845E-04  2.564361724987E-04  5.481714314535E-05  9.948581315160E-09
  4.285840305612E-05  1.437450010285E-04  2.717010834803E-04  4.034693115005E-04
  5.225386541131E-04  6.181722707365E-04  6.844483050867E-04  7.193326986506E-04
  7.238016884818E-04  7.010297061281E-04  6.556559922932E-04  5.931404554480E-04
  5.192162205655E-04  4.394430410514E-04  3.588624000747E-04  2.817518325152E-04
  2.114728844194E-04  1.504043192398E-04  9.994979621920E-05  6.060738757995E-05
  3.208704757750E-05  1.346155067498E-05  3.336499228670E-06  2.574971007066E-08
  1.719971549561E-06  6.637950440477E-06  1.315256331690E-05  1.988594440658E-05
  2.577107198608E-05  3.007966656730E-05  3.241873854909E-05  3.270020614280E-05
  3.108959704495E-05  2.794085947157E-05  2.372469245075E-05  1.895756234250E-05
  1.413775227838E-05  9.693489740597E-06  5.946550131049E-06  3.092904273742E-06
  1.200142483390E-06  2.197416897157E-07  1.090023390271E-08  3.717672464901E-07
  1.073511857163E-06  1.892827525070E-06  2.639105565601E-06  3.173542155430E-06
  3.418723775847E-06  3.358599114806E-06  3.030016154779E-06  2.508022291018E-06
  1.887770066287E-06  1.266071932682E-06  7.253980616498E-07  3.224698684249E-07
  8.268323529261E-08  5.534621929440E-10  0.000000000000E+00  0.000000000000E+00
  0.000000000000E+00  0.000000000000E+00  0.000000000000E+00  0.000000000000E+00
  0.000000000000E+00  0.000000000000E+00  0.000000000000E+00  0.000000000000E+00
  0.000000000000E+00  0.000000000000E+00  0.000000000000E+00  0.000000000000E+00
  0.000000000000E+00  0.000000000000E+00  0.000000000000E+00  0.000000000000E+00
  0.000000000000E+00  0.000000000000E+00  0.000000000000E+00  0.000000000000E+00
  0.000000000000E+00  0.000000000000E+00  0.000000000000E+00  0.000000000000E+00
  0.000000000000E+00  0.000000000000E+00  0.000000000000E+00  0.000000000000E+00
  0.000000000000E+00  0.000000000000E+00  0.000000000000E+00  0.000000000000E+00
  0.000000000000E+00  0.000000000000E+00  0.000000000000E+00  0.000000000000E+00
  0.000000000000E+00  0.000000000000E+00  0.000000000000E+00  0.000000000000E+00
  0.000000000000E+00  0.000000000000E+00  0.000000000000E+00  0.000000000000E+00
  0.000000000000E+00  0.000000000000E+00  0.000000000000E+00  0.000000000000E+00
  0.000000000000E+00  0.000000000000E+00  0.000000000000E+00  0.000000000000E+00
  0.000000000000E+00  0.000000000000E+00  0.000000000000E+00  0.000000000000E+00
  0.000000000000E+00  0.000000000000E+00
</data>
</radfunc>
</pseudocore-charge>
<semilocal-potentials set="scalar_relativistic">
<slps n="4" l="s" rc="1.45540543585">
<radfunc>
<data npts="290">
  8.927488368701E+01  8.917444662082E+01  8.887523778873E+01  8.837948063630E+01
  8.769723611647E+01  8.681237687356E+01  8.570428781907E+01  8.446171405194E+01
  8.295624282335E+01  8.137382834921E+01  7.964411841384E+01  7.782584510189E+01
  7.570977004700E+01  7.358945175273E+01  7.155732879290E+01  6.931650639148E+01
  6.685968712609E+01  6.464438595403E+01  6.227618648151E+01  5.975730032999E+01
  5.709250928067E+01  5.486060151011E+01  5.254528054870E+01  5.015292426017E+01
  4.769107313852E+01  4.516837175763E+01  4.259447608466E+01  4.063677039002E+01
  3.866090699878E+01  3.667179907773E+01  3.467450190162E+01  3.267416339503E+01
  3.067597279101E+01  2.868510851635E+01  2.670668644422E+01  2.474570964364E+01
  2.280702070334E+01  2.089525761664E+01  1.963788856453E+01  1.839567931501E+01
  1.716980499402E+01  1.596137819453E+01  1.477144610435E+01  1.360098818309E+01
  1.245091439070E+01  1.132206396297E+01  1.021520472359E+01  9.131032916774E+00
  8.070173539123E+00  7.033181145455E+00  6.020541099228E+00  5.032671235311E+00
  4.069923900383E+00  3.132588334475E+00  2.220893355965E+00  1.335010311687E+00
  4.750562536393E-01 -3.589026960204E-01 -1.166847829440E+00 -1.948804223936E+00
 -2.704837035219E+00 -3.435047747755E+00 -4.139570415855E+00 -4.818567927718E+00
 -5.472228323244E+00 -6.100761194819E+00 -6.704394198393E+00 -6.996948502984E+00
 -7.283369699905E+00 -7.563689858921E+00 -7.837941579158E+00 -8.106157899086E+00
 -8.368372209554E+00 -8.624618169931E+00 -8.874929627372E+00 -9.119340539201E+00
 -9.357884898398E+00 -9.590596662077E+00 -9.817509682882E+00 -1.003865764323E+01
 -1.025407399203E+01 -1.046379188408E+01 -1.066784412143E+01 -1.086626309696E+01
 -1.105908073968E+01 -1.124632846156E+01 -1.142803710575E+01 -1.160423689597E+01
 -1.177495738685E+01 -1.194022741528E+01 -1.210007505254E+01 -1.225452755743E+01
 -1.240361133030E+01 -1.254735186843E+01 -1.268577372287E+01 -1.281890045708E+01
 -1.294675460809E+01 -1.306935765045E+01 -1.318672996369E+01 -1.329889080399E+01
 -1.340585828074E+01 -1.350764933869E+01 -1.360427974645E+01 -1.369576409216E+01
 -1.378211578695E+01 -1.386334707705E+01 -1.393946906513E+01 -1.401049174175E+01
 -1.407642402741E+01 -1.413727382607E+01 -1.419304809077E+01 -1.424375290198E+01
 -1.428939355943E+01 -1.432997468809E+01 -1.436550035879E+01 -1.439597422414E+01
 -1.442139967002E+01 -1.444177998299E+01 -1.445711853362E+01 -1.446741897533E+01
 -1.447268545852E+01 -1.447292285882E+01 -1.446813701848E+01 -1.445833499930E+01
 -1.444352534545E+01 -1.442371835424E+01 -1.439892635292E+01 -1.436916397973E+01
 -1.433444846753E+01 -1.429479992904E+01 -1.425024164311E+01 -1.420080034237E+01
 -1.414650650352E+01 -1.408739464240E+01 -1.402350361734E+01 -1.395487694500E+01
 -1.388156313411E+01 -1.380361604352E+01 -1.372109527125E+01 -1.363406658237E+01
 -1.354260238337E+01 -1.344678225105E+01 -1.334669352389E+01 -1.324243196357E+01
 -1.313410249368E+01 -1.302182002253E+01 -1.290571035572E+01 -1.278591120360E+01
 -1.266257328764E+01 -1.253586154833E+01 -1.240595645603E+01 -1.227305542402E+01
 -1.213737432091E+01 -1.199914907673E+01 -1.185863737326E+01 -1.171612040487E+01