<?xml version="1.0" encoding="UTF-8" ?>
<psml version="1.1" energy_unit="hartree" length_unit="bohr"
 uuid="8e8211a0-43c4-11e8-713f-7879ce3f716f"
 xmlns="http://esl.cecam.org/PSML/ns/1.1">
<provenance creator="ONCVPSP-3.3.0+psml-3.3.0-73 (fully-relativistic)"
 date="2018-04-19">
<annotation action="semilocal-pseudopotential-generation"
 action-cont="projectors-generation" />
<input-file name="oncvpsp-input">
<![CDATA[# atsym z nc nv iexc psfile
Sc 21 3 4 4 both
# n l f
1 0 2.0
2 0 2.0
2 1 6.0
3 0 2.0
3 1 6.0
3 2 1.0
4 0 2.0
# lmax
2
# l rc ep ncon nbas qcut
0 1.35 0.0 4 9 8.6
1 1.35 0.0 4 8 9.0
2 1.65 0.0 4 8 8.8
# lloc lpopt rc5 dvloc0
4 5 1.3 0.0
# l nproj debl
0 2 2.0
1 2 2.0
2 2 2.0
# icmod fcfact
3 5 1.25
# epsh1 epsh2 depsh
-12.0 12.0 0.02
# rlmax drl
6.0 0.01
 0
]]>
</input-file>
</provenance>
<pseudo-atom-spec atomic-label="Sc" atomic-number="21" z-pseudo="11"
 flavor="Hamann&apos;s oncvpsp" relativity="dirac" spin-dft="no"
 core-corrections="yes">
<annotation pseudo-energy="-46.6024811837" />
<exchange-correlation>
<annotation oncvpsp-xc-code="4" oncvpsp-xc-type="GGA -- Perdew-Burke-Ernzerhof" />
<libxc-info number-of-functionals="2">
<functional name="Perdew, Burke &amp; Ernzerhof (GGA)" type="exchange" id="101" />
<functional name="Perdew, Burke &amp; Ernzerhof (GGA)" type="correlation"
 id="130" />
</libxc-info>
</exchange-correlation>
<valence-configuration total-valence-charge="11">
<shell n="3" l="s" occupation="2" />
<shell n="3" l="p" occupation="6" />
<shell n="3" l="d" occupation="1" />
<shell n="4" l="s" occupation="2" />
</valence-configuration>
</pseudo-atom-spec>
<grid npts="457">
<annotation type="sampled from oncvpsp log grid"
 recipe="r(i:1..N) = r1*exp(a*(i-1)) + r=0; resampled"
 recipe-cont="r1: scale; a: step" scale="0.238095238095E-04"
 step="0.119285708653E-01" delta="0.500000000000E-02" rmax="44.1744182858" />
<grid-data>
  0.000000000000E+00  5.044299027886E-03  1.007559144583E-02  1.511499382701E-02
  2.012520320902E-02  2.524468824449E-02  3.055330615518E-02  3.567835927215E-02
  4.068089620927E-02  4.583483127647E-02  5.102937504002E-02  5.613895828010E-02
  6.176016528329E-02  6.713856230878E-02  7.298533817411E-02  7.840047603693E-02
  8.421738936325E-02  8.939316979483E-02  9.488704015153E-02  1.007185494080E-01
  1.069084479677E-01  1.121331635373E-01  1.176132158300E-01  1.233610833896E-01
  1.293898545982E-01  1.357132574790E-01  1.423456909567E-01  1.475318751429E-01
  1.529070113532E-01  1.584779838142E-01  1.642519275704E-01  1.702362376230E-01
  1.764385784003E-01  1.828668935745E-01  1.895294162352E-01  1.964346794343E-01
  2.035915271145E-01  2.110091254365E-01  2.161037297611E-01  2.213213382124E-01
  2.266649206022E-01  2.321375184453E-01  2.377422466906E-01  2.434822954947E-01
  2.493609320371E-01  2.553815023802E-01  2.615474333737E-01  2.678622346051E-01
  2.743295003974E-01  2.809529118550E-01  2.877362389588E-01  2.946833427122E-01
  3.017981773387E-01  3.090847925323E-01  3.165473357632E-01  3.241900546379E-01
  3.320172993171E-01  3.400335249918E-01  3.482432944192E-01  3.566512805196E-01
  3.652622690365E-01  3.740811612601E-01  3.831129768176E-01  3.923628565299E-01
  4.018360653379E-01  4.115379952994E-01  4.214741686579E-01  4.265318586818E-01
  4.316502409860E-01  4.368300438779E-01  4.420720044044E-01  4.473768684572E-01
  4.527453908787E-01  4.581783355693E-01  4.636764755961E-01  4.692405933033E-01
  4.748714804229E-01  4.805699381880E-01  4.863367774462E-01  4.921728187756E-01
  4.980788926009E-01  5.040558393121E-01  5.101045093838E-01  5.162257634964E-01
  5.224204726584E-01  5.286895183303E-01  5.350337925503E-01  5.414541980609E-01
  5.479516484376E-01  5.545270682189E-01  5.611813930375E-01  5.679155697539E-01
  5.747305565910E-01  5.816273232701E-01  5.886068511493E-01  5.956701333631E-01
  6.028181749635E-01  6.100519930630E-01  6.173726169798E-01  6.247810883835E-01
  6.322784614441E-01  6.398658029815E-01  6.475441926172E-01  6.553147229287E-01
  6.631784996038E-01  6.711366415990E-01  6.791902812982E-01  6.873405646738E-01
  6.955886514499E-01  7.039357152673E-01  7.123829438505E-01  7.209315391767E-01
  7.295827176468E-01  7.383377102586E-01  7.471977627817E-01  7.561641359351E-01
  7.652381055663E-01  7.744209628331E-01  7.837140143871E-01  7.931185825597E-01
  8.026360055504E-01  8.122676376171E-01  8.220148492685E-01  8.318790274597E-01
  8.418615757892E-01  8.519639146987E-01  8.621874816750E-01  8.725337314552E-01
  8.830041362326E-01  8.936001858674E-01  9.043233880978E-01  9.151752687550E-01
  9.261573719800E-01  9.372712604438E-01  9.485185155691E-01  9.599007377560E-01
  9.714195466090E-01  9.830765811683E-01  9.948735001424E-01  1.006811982144E+00
  1.018893725930E+00  1.031120450641E+00  1.043493896049E+00  1.056015822801E+00
  1.068688012675E+00  1.081512268827E+00  1.094490416053E+00  1.107624301046E+00
  1.120915792658E+00  1.134366782170E+00  1.147979183556E+00  1.161754933759E+00
  1.175695992964E+00  1.189804344879E+00  1.204081997018E+00  1.218530980982E+00
  1.233153352754E+00  1.247951192987E+00  1.262926607303E+00  1.278081726590E+00
  1.293418707309E+00  1.308939731797E+00  1.324647008579E+00  1.340542772682E+00
  1.356629285954E+00  1.372908837385E+00  1.389383743434E+00  1.406056348355E+00
  1.422929024535E+00  1.440004172830E+00  1.457284222904E+00  1.474771633579E+00
  1.492468893182E+00  1.510378519900E+00  1.528503062139E+00  1.546845098884E+00
  1.565407240071E+00  1.584192126952E+00  1.603202432475E+00  1.622440861665E+00
  1.641910152005E+00  1.661613073829E+00  1.681552430715E+00  1.701731059883E+00
  1.722151832602E+00  1.742817654593E+00  1.763731466448E+00  1.784896244046E+00
  1.806314998974E+00  1.827990778962E+00  1.849926668309E+00  1.872125788329E+00
  1.894591297789E+00  1.917326393363E+00  1.940334310083E+00  1.963618321804E+00
  1.987181741666E+00  2.011027922566E+00  2.035160257636E+00  2.059582180728E+00
  2.084297166897E+00  2.109308732900E+00  2.134620437694E+00  2.160235882947E+00
  2.186158713542E+00  2.212392618105E+00  2.238941329522E+00  2.265808625476E+00
  2.292998328982E+00  2.320514308930E+00  2.348360480637E+00  2.376540806404E+00
  2.405059296081E+00  2.433920007634E+00  2.463127047726E+00  2.492684572298E+00
  2.522596787166E+00  2.552867948612E+00  2.583502363995E+00  2.614504392363E+00
  2.645878445072E+00  2.677628986413E+00  2.709760534250E+00  2.742277660661E+00
  2.775184992588E+00  2.808487212499E+00  2.842189059049E+00  2.876295327758E+00
  2.910810871691E+00  2.945740602151E+00  2.981089489377E+00  3.016862563250E+00
  3.053064914009E+00  3.089701692977E+00  3.126778113293E+00  3.164299450652E+00
  3.202271044060E+00  3.240698296589E+00  3.279586676148E+00  3.318941716262E+00
  3.358769016857E+00  3.399074245059E+00  3.439863136000E+00  3.481141493632E+00
  3.522915191555E+00  3.565190173854E+00  3.607972455940E+00  3.651268125411E+00
  3.695083342916E+00  3.739424343031E+00  3.784297435148E+00  3.829709004370E+00
  3.875665512422E+00  3.922173498571E+00  3.969239580554E+00  4.016870455521E+00
  4.065072900987E+00  4.113853775799E+00  4.163220021108E+00  4.213178661361E+00
  4.263736805298E+00  4.314901646961E+00  4.366680466725E+00  4.419080632326E+00
  4.472109599914E+00  4.525774915112E+00  4.580084214094E+00  4.635045224663E+00
  4.690665767359E+00  4.746953756567E+00  4.803917201646E+00  4.861564208066E+00
  4.919902978563E+00  4.978941814305E+00  5.038689116077E+00  5.099153385470E+00
  5.160343226096E+00  5.222267344809E+00  5.284934552946E+00  5.348353767582E+00
  5.412534012793E+00  5.477484420946E+00  5.543214233998E+00  5.609732804806E+00
  5.677049598463E+00  5.745174193645E+00  5.814116283969E+00  5.883885679376E+00
  5.954492307529E+00  6.025946215219E+00  6.098257569802E+00  6.171436660639E+00
  6.245493900567E+00  6.320439827374E+00  6.396285105302E+00  6.473040526566E+00
  6.550717012885E+00  6.629325617039E+00  6.708877524444E+00  6.789384054737E+00
  6.870856663394E+00  6.953306943355E+00  7.036746626675E+00  7.121187586195E+00
  7.206641837229E+00  7.293121539276E+00  7.380638997747E+00  7.469206665720E+00
  7.558837145709E+00  7.649543191458E+00  7.741337709755E+00  7.834233762272E+00
  7.928244567419E+00  8.023383502228E+00  8.119664104255E+00  8.217100073506E+00
  8.315705274388E+00  8.415493737681E+00  8.516479662533E+00  8.618677418483E+00
  8.722101547505E+00  8.826766766075E+00  8.932687967268E+00  9.039880222875E+00
  9.148358785550E+00  9.258139090977E+00  9.369236760068E+00  9.481667601189E+00
  9.595447612403E+00  9.710592983752E+00  9.827120099557E+00  9.945045540752E+00
  1.006438608724E+01  1.018515872029E+01  1.030738062493E+01  1.043106919243E+01
  1.055624202274E+01  1.068291692701E+01  1.081111193014E+01  1.094084527330E+01
  1.107213541658E+01  1.120500104158E+01  1.133946105408E+01  1.147553458672E+01
  1.161324100177E+01  1.175259989379E+01  1.189363109251E+01  1.203635466562E+01
  1.218079092161E+01  1.232696041267E+01  1.247488393762E+01  1.262458254487E+01
  1.277607753541E+01  1.292939046584E+01  1.308454315143E+01  1.324155766924E+01
  1.340045636127E+01  1.356126183761E+01  1.372399697966E+01  1.388868494342E+01
  1.405534916274E+01  1.422401335269E+01  1.439470151292E+01  1.456743793108E+01
  1.474224718625E+01  1.491915415249E+01  1.509818400232E+01  1.527936221034E+01
  1.546271455687E+01  1.564826713155E+01  1.583604633713E+01  1.602607889317E+01
  1.621839183989E+01  1.641301254197E+01  1.660996869247E+01  1.680928831678E+01
  1.701099977659E+01  1.721513177390E+01  1.742171335519E+01  1.763077391545E+01
  1.784234320244E+01  1.805645132087E+01  1.827312873672E+01  1.849240628156E+01
  1.871431515694E+01  1.893888693882E+01  1.916615358209E+01  1.939614742507E+01
  1.962890119417E+01  1.986444800850E+01  2.010282138461E+01  2.034405524122E+01
  2.058818390411E+01  2.083524211096E+01  2.108526501630E+01  2.133828819649E+01
  2.159434765485E+01  2.185347982671E+01  2.211572158463E+01  2.238111024364E+01
  2.264968356657E+01  2.292147976937E+01  2.319653752660E+01  2.347489597692E+01
  2.375659472864E+01  2.404167386538E+01  2.433017395177E+01  2.462213603919E+01
  2.491760167166E+01  2.521661289172E+01  2.551921224642E+01  2.582544279338E+01
  2.613534810690E+01  2.644897228418E+01  2.676635995159E+01  2.708755627101E+01
  2.741260694626E+01  2.774155822962E+01  2.807445692837E+01  2.841135041151E+01
  2.875228661645E+01  2.909731405585E+01  2.944648182452E+01  2.979983960641E+01
  3.015743768169E+01  3.051932693387E+01  3.088555885708E+01  3.125618556336E+01
  3.163125979012E+01  3.201083490760E+01  3.239496492650E+01  3.278370450561E+01
  3.317710895968E+01  3.357523426720E+01  3.397813707840E+01  3.438587472334E+01
  3.479850522002E+01  3.521608728266E+01  3.563868033006E+01  3.606634449402E+01
  3.649914062795E+01  3.693713031548E+01  3.738037587927E+01  3.782894038982E+01
  3.828288767450E+01  3.874228232659E+01  3.920718971451E+01  3.967767599108E+01
  4.015380810298E+01  4.063565380021E+01  4.112328164581E+01  4.161676102556E+01
  4.211616215787E+01  4.262155610377E+01  4.313301477701E+01  4.365061095433E+01
  4.417441828579E+01
</grid-data>
</grid>
<valence-charge total-charge="11" is-unscreening-charge="yes"
 rescaled-to-z-pseudo="no">
<radfunc>
<data npts="457">
  8.551785235850E-01  8.566737971479E-01  8.611436199899E-01  8.686006550783E-01
  8.789681489537E-01  8.925997025364E-01  9.099719506879E-01  9.298633008584E-01
  9.522272143958E-01  9.783046513594E-01  1.007695191050E+00  1.039636750393E+00
  1.078234309748E+00  1.118538672259E+00  1.166074217424E+00  1.213536478366E+00
  1.268175411366E+00  1.319951769790E+00  1.378139555808E+00  1.443510765649E+00
  1.516924210279E+00  1.582082807380E+00  1.653532084401E+00  1.731852209683E+00
  1.817670817008E+00  1.911665476259E+00  2.014565920122E+00  2.098055076036E+00
  2.187344489817E+00  2.282802883091E+00  2.384816667758E+00  2.493789741938E+00
  2.610143035082E+00  2.734313748203E+00  2.866754226328E+00  3.007930390275E+00
  3.158319643680E+00  3.318408158689E+00  3.430764931956E+00  3.547796992345E+00
  3.669649972662E+00  3.796468284214E+00  3.928394241779E+00  4.065567071957E+00
  4.208121793839E+00  4.356187960278E+00  4.509888247458E+00  4.669336879940E+00
  4.834637877909E+00  5.005883113077E+00  5.183150159569E+00  5.366499926215E+00
  5.555974057064E+00  5.751592087698E+00  5.953348346076E+00  6.161208588361E+00
  6.375106362525E+00  6.594939095576E+00  6.820563904248E+00  7.051793133935E+00
  7.288389636798E+00  7.530061807415E+00  7.776458403306E+00  8.027163188190E+00
  8.281689448224E+00  8.539474445691E+00  8.799873890845E+00  8.930829055495E+00
  9.062156530868E+00  9.193750472958E+00  9.325498975110E+00  9.457283929392E+00
  9.588980897803E+00  9.720458994834E+00  9.851580783021E+00  9.982202183207E+00
  1.011217240134E+01  1.024133387372E+01  1.036952223274E+01  1.049656629515E+01
  1.062228807510E+01  1.074650282414E+01  1.086901910056E+01  1.098963887042E+01
  1.110815764253E+01  1.122436464006E+01  1.133804301097E+01  1.144897007972E+01
  1.155691764266E+01  1.166165230934E+01  1.176293589187E+01  1.186052584443E+01
  1.195417575478E+01  1.204363588937E+01  1.212865379354E+01  1.220897494791E+01
  1.228434348160E+01  1.235450294296E+01  1.241919712748E+01  1.247817096257E+01
  1.253117144819E+01  1.257794865158E+01  1.261825675417E+01  1.265185514755E+01
  1.267850957527E+01  1.269799331606E+01  1.271008840361E+01  1.271458687720E+01
  1.271129205686E+01  1.270001983570E+01  1.268059998166E+01  1.265287744009E+01
  1.261671362784E+01  1.257198770905E+01  1.251859784232E+01  1.245646238844E+01
  1.238552106743E+01  1.230573605366E+01  1.221709299740E+01  1.211960196145E+01
  1.201329826139E+01  1.189824319853E+01  1.177452467497E+01  1.164225768079E+01
  1.150158464405E+01  1.135267563547E+01  1.119572842011E+01  1.103096835002E+01
  1.085864809273E+01  1.067904719167E+01  1.049247145603E+01  1.029925217891E+01
  1.009974518375E+01  9.894329700495E+00  9.683407074021E+00  9.467399308715E+00
  9.246747453957E+00  9.021909836490E+00  8.793360146470E+00  8.561585384942E+00
  8.327083681313E+00  8.090361990234E+00  7.851933678173E+00  7.612316010908E+00
  7.372027554191E+00  7.131585501076E+00  6.891502940786E+00  6.652286085601E+00
  6.414431474152E+00  6.178423171552E+00  5.944729989106E+00  5.713802748781E+00
  5.486071620092E+00  5.261943559514E+00  5.041799884761E+00  4.825994018161E+00
  4.614849434685E+00  4.408657850800E+00  4.207677690054E+00  4.012132859911E+00
  3.822211871840E+00  3.638067332866E+00  3.459815831667E+00  3.287538236084E+00
  3.121280411823E+00  2.961055235844E+00  2.806848572805E+00  2.658627533924E+00
  2.516342606153E+00  2.379928099518E+00  2.249303900059E+00  2.124376755401E+00
  2.005041635152E+00  1.891183070587E+00  1.782676472215E+00  1.679389414894E+00
  1.581182880447E+00  1.487912447314E+00  1.399429416849E+00  1.315581866049E+00
  1.236215617048E+00  1.161175114603E+00  1.090304088487E+00  1.023445649986E+00
  9.604421020555E-01  9.011354619382E-01  8.453682393843E-01  7.929839427239E-01
  7.438276240098E-01  6.977463660332E-01  6.545897260288E-01  6.142101355622E-01
  5.764632574152E-01  5.412083006886E-01  5.083082952467E-01  4.776303269724E-01
  4.490457353480E-01  4.224302749870E-01  3.976642428278E-01  3.746325727554E-01
  3.532248994701E-01  3.333355934582E-01  3.148637689581E-01  2.977132668634E-01
  2.817926145654E-01  2.670149648192E-01  2.532980158268E-01  2.405639148553E-01
  2.287391478398E-01  2.177544175390E-01  2.075445128782E-01  1.980481721047E-01
  1.892079422511E-01  1.809700371376E-01  1.732841957457E-01  1.661035422798E-01
  1.593844486688E-01  1.530863997027E-01  1.471718605426E-01  1.416061460298E-01
  1.363572910984E-01  1.313959216502E-01  1.266951254465E-01  1.222303228493E-01
  1.179791375416E-01  1.139212676236E-01  1.100383576726E-01  1.063138724684E-01
  1.027329731210E-01  9.928239629721E-02  9.595033716892E-02  9.272633659466E-02
  8.960117293064E-02  8.656675875280E-02  8.361604266673E-02  8.074291629261E-02
  7.794212643813E-02  7.520919241349E-02  7.254032839751E-02  6.993237073000E-02
  6.738270998193E-02  6.488922763769E-02  6.245023721347E-02  6.006442962876E-02
  5.773082264494E-02  5.544871418363E-02  5.321763933849E-02  5.103733089582E-02
  4.890768318253E-02  4.682871906373E-02  4.480055991676E-02  4.282339841372E-02
  4.089747395052E-02  3.902305056716E-02  3.720039721109E-02  3.542977020401E-02
  3.371139778024E-02  3.204546657456E-02  3.043210994585E-02  2.887139803222E-02
  2.736332944170E-02  2.590782449037E-02  2.450471990611E-02  2.315376492160E-02
  2.185461868335E-02  2.060684890503E-02  1.940993169318E-02  1.826325247154E-02
  1.716610792640E-02  1.611770889299E-02  1.511718409063E-02  1.416358462019E-02
  1.325588912765E-02  1.239300953049E-02  1.157379720508E-02  1.079704953183E-02
  1.006151669493E-02  9.365908636717E-03  8.708902070513E-03  8.089147461959E-03
  7.505275895835E-03  6.955905753734E-03  6.439649136936E-03  5.955117978316E-03
  5.500929796859E-03  5.075713057946E-03  4.678112111909E-03  4.306791692231E-03
  3.960440962935E-03  3.637777112225E-03  3.337548496084E-03  3.058537341356E-03
  2.799562022801E-03  2.559478932727E-03  2.337183965087E-03  2.131613638476E-03
  1.941745884279E-03  1.766600527374E-03  1.605239487397E-03  1.456766728607E-03
  1.320327986041E-03  1.195110294815E-03  1.080341348386E-03  9.752887101665E-04
  8.792589013608E-04  7.915963861469E-04  7.116824735245E-04  6.389341532902E-04
  5.728028817366E-04  5.127733308525E-04  4.583621130512E-04  4.091164918131E-04
  3.646130871093E-04  3.244565831032E-04  2.882784444067E-04  2.557356461076E-04
  2.265094218793E-04  2.003040337233E-04  1.768455662749E-04  1.558807480966E-04
  1.371758019883E-04  1.205153260252E-04  1.057012067936E-04  9.255156609426E-05
  8.089974222813E-05  7.059330683769E-05  6.149311815497E-05  5.347241138223E-05
  4.641592680723E-05  4.021907612311E-05  3.478714728287E-05  3.003454807011E-05
  2.588408841245E-05  2.226630130308E-05  1.911880203289E-05  1.638568527338E-05
  1.401695939125E-05  1.196801722405E-05  1.019914240330E-05  8.675050180934E-06
  7.364461597903E-06  6.239709732075E-06  5.276376676898E-06  4.452959833502E-06
  3.750566046739E-06  3.152632079929E-06  2.644669903133E-06  2.214035264678E-06
  1.849718024237E-06  1.542152746802E-06  1.283048088893E-06  1.065233549912E-06
  8.825222112426E-07  7.295881419414E-07  6.018572114512E-07  4.954101151879E-07
  4.068964870298E-07  3.334590424640E-07  2.726667664635E-07  2.224562301748E-07
  1.810801894350E-07  1.470626853628E-07  1.191599322402E-07  9.632634019779E-08
  7.768507950585E-08  6.250264931109E-08  5.016696629210E-08  4.016853783897E-08
  3.208432996952E-08  2.556398230179E-08  2.031806107651E-08  1.610807656981E-08
  1.273802338776E-08  1.004723124648E-08  7.904340082878E-09  6.202236894750E-09
  4.853812756899E-09  3.788417203416E-09  2.948903775241E-09  2.289175161484E-09
  1.772149292723E-09  1.368080021379E-09  1.053169687395E-09  7.275712116964E-10
  5.556628283573E-10  4.231088610101E-10  3.212057037526E-10  2.431027765331E-10
  1.834243954678E-10  1.379651882753E-10  1.034455214146E-10  7.731573730689E-11
  5.759996167583E-11  4.277188493513E-11  3.165629426468E-11  2.335127513088E-11
  1.716694783737E-11  1.257738677620E-11  9.183013701312E-12  6.681284132276E-12
  4.843917180842E-12  3.499270057335E-12  2.518743118569E-12  1.806331248584E-12
  1.290622421023E-12  9.186926694467E-13  6.514652046311E-13  4.601957121424E-13
  3.238205968647E-13  2.269639393878E-13  1.584453211797E-13  1.101670093924E-13
  7.628733409673E-14  5.260910881993E-14  3.612898033711E-14  2.470671888696E-14
  1.682353042934E-14  1.140616656497E-14  7.699461007141E-15  5.174355213054E-15
  3.461819589660E-15  2.305587407956E-15  1.528495360259E-15  1.008621322055E-15
  6.624444595075E-16  4.330156870458E-16  2.816863749806E-16  1.823522062784E-16
  1.174664330840E-16  7.529192673366E-17  4.801632026006E-17  3.046553739558E-17
  1.923009809219E-17  1.207480054383E-17  7.541837761921E-18  4.685388481685E-18
  2.895057937641E-18  1.779032348677E-18  1.087168144884E-18  6.606430817515E-19
  3.991765542405E-19  2.398067629350E-19  1.432273793645E-19  8.504102130890E-20
  5.019239372636E-20  2.944579000052E-20  1.716930972286E-20  9.949353289032E-21
  5.729502733799E-21  3.278584026933E-21  1.864102610169E-21  1.053012817420E-21
  5.909410108424E-22  0.000000000000E+00  0.000000000000E+00  0.000000000000E+00
  0.000000000000E+00
</data>
</radfunc>
</valence-charge>
<pseudocore-charge matching-radius="0.574730556591"
 number-of-continuous-derivatives="4">
<annotation model-charge-form="Teter function with specified parameters" />
<radfunc>
<data npts="290">
  6.343046404760E+01  6.342058457313E+01  6.339105657315E+01  6.334181063706E+01
  6.327337702361E+01  6.318345619431E+01  6.306895544003E+01  6.293798272819E+01
  6.279089707133E+01  6.261961133539E+01  6.242685189009E+01  6.221770677796E+01
  6.196545880599E+01  6.170261436738E+01  6.139334263399E+01  6.108533454494E+01
  6.073172365676E+01  6.039759408672E+01  6.002319514716E+01  5.960396631162E+01
  5.913490905697E+01  5.872013557559E+01  5.826697716037E+01  5.777222607118E+01
  5.723247871325E+01  5.664413971975E+01  5.600343059050E+01  5.548616205364E+01
  5.493549689314E+01  5.434967377488E+01  5.372689946234E+01  5.306535906925E+01
  5.236322845055E+01  5.161868898385E+01  5.082994500355E+01  4.999524415514E+01
  4.911290093606E+01  4.818132368012E+01  4.753218926823E+01  4.686012074119E+01
  4.616475744721E+01  4.544578041857E+01  4.470291808595E+01  4.393595235463E+01
  4.314472503612E+01  4.232914462337E+01  4.148919339083E+01  4.062493479360E+01
  3.973652113104E+01  3.882420143067E+01  3.788832949757E+01  3.692937206244E+01
  3.594791694850E+01  3.494468116326E+01  3.392051880594E+01  3.287642866522E+01
  3.181356136515E+01  3.073322589956E+01  2.963689537791E+01  2.852621178809E+01
  2.740298956485E+01  2.626921773772E+01  2.512706041853E+01  2.397885537859E+01
  2.282711045902E+01  2.167449755620E+01  2.052384392880E+01  1.995017504930E+01
  1.937812058508E+01  1.880807195310E+01  1.824042752962E+01  1.767559200442E+01
  1.711397567974E+01  1.655599371315E+01  1.600206530413E+01  1.545261282422E+01
  1.490806089106E+01  1.436883538687E+01  1.383536242247E+01  1.330806724812E+01
  1.278737311315E+01  1.227370007665E+01  1.176746377200E+01  1.126907412869E+01
  1.077893405506E+01  1.029743808674E+01  9.824971005405E+00  9.361906433776E+00
  8.908605412845E+00  8.465414968193E+00  8.032666672766E+00  7.610675214091E+00
  7.199736974450E+00  6.800128633099E+00  6.412105800136E+00  6.035901692053E+00
  5.671725859469E+00  5.319762977853E+00  4.980171712366E+00  4.653083668110E+00
  4.338602437208E+00  4.036802754114E+00  3.747729770436E+00  3.471398460323E+00
  3.207793167064E+00  2.956867301023E+00  2.718543198363E+00  2.492712149148E+00
  2.279234602410E+00  2.077940554597E+00  1.888630126461E+00  1.711074331921E+00
  1.545016040787E+00  1.390171135370E+00  1.246229859046E+00  1.112858352734E+00
  9.897003730477E-01  8.763791835892E-01  7.724996084871E-01  6.776502349390E-01
  5.914057491312E-01  5.133293876109E-01  4.429754839626E-01  3.798920885610E-01
  3.236236372782E-01  2.737136433614E-01  2.297073853215E-01  1.911545626250E-01
  1.576118903186E-01  1.286456034644E-01  1.038338424805E-01  8.276889118572E-02
  6.505924056260E-02  5.033145300686E-02  3.823180410696E-02  2.842768180581E-02
  2.060872610097E-02  1.448769621039E-02  9.801056313474E-03  6.309275505362E-03
  3.796842393603E-03  2.071999725383E-03  9.662094506263E-04  3.333635830617E-04
  4.876098999067E-05  7.874690327554E-06  1.249382366200E-04  3.313831711364E-04
  5.741622578542E-04  8.139950938814E-04  1.023573706532E-03  1.185765780479E-03
  1.291852195665E-03  1.339833585568E-03  1.332837676552E-03  1.277655308970E-03
  1.183428373199E-03  1.060507558820E-03  9.194919857910E-04  7.704566636880E-04
  6.223675316539E-04  4.826778027525E-04  3.570937102686E-04  2.494927598199E-04
  1.619734395580E-04  9.501220878173E-05  4.770160734897E-05  1.804258584754E-05
  3.264670687637E-06  1.493052785861E-07  5.334538533044E-06  1.558299254189E-05
  2.799950435290E-05  4.018973043661E-05  5.035602623894E-05  5.733175688359E-05
  6.055955894688E-05  6.002268954342E-05  5.614125220357E-05  4.964663347326E-05
  4.144785711116E-05  3.250279173305E-05  2.370535065954E-05  1.579720015977E-05
  9.309312120416E-06  4.535272140374E-06  1.534913966443E-06  1.639120634000E-07
  1.226971719522E-07  1.016663451043E-06  2.419214458155E-06  3.929746450791E-06
  5.220081431744E-06  6.064932991935E-06  6.354436362080E-06  6.089281281524E-06
  5.361232853865E-06  4.323532347896E-06  3.156635246165E-06  2.034871464867E-06
  1.098925840893E-06  4.376759327428E-07  8.112604965909E-08  0.000000000000E+00
  0.000000000000E+00  0.000000000000E+00  0.000000000000E+00  0.000000000000E+00
  0.000000000000E+00  0.000000000000E+00  0.000000000000E+00  0.000000000000E+00
  0.000000000000E+00  0.000000000000E+00  0.000000000000E+00  0.000000000000E+00
  0.000000000000E+00  0.000000000000E+00  0.000000000000E+00  0.000000000000E+00
  0.000000000000E+00  0.000000000000E+00  0.000000000000E+00  0.000000000000E+00
  0.000000000000E+00  0.000000000000E+00  0.000000000000E+00  0.000000000000E+00
  0.000000000000E+00  0.000000000000E+00  0.000000000000E+00  0.000000000000E+00
  0.000000000000E+00  0.000000000000E+00  0.000000000000E+00  0.000000000000E+00
  0.000000000000E+00  0.000000000000E+00  0.000000000000E+00  0.000000000000E+00
  0.000000000000E+00  0.000000000000E+00  0.000000000000E+00  0.000000000000E+00
  0.000000000000E+00  0.000000000000E+00  0.000000000000E+00  0.000000000000E+00
  0.000000000000E+00  0.000000000000E+00  0.000000000000E+00  0.000000000000E+00
  0.000000000000E+00  0.000000000000E+00  0.000000000000E+00  0.000000000000E+00
  0.000000000000E+00  0.000000000000E+00  0.000000000000E+00  0.000000000000E+00
  0.000000000000E+00  0.000000000000E+00  0.000000000000E+00  0.000000000000E+00
  0.000000000000E+00  0.000000000000E+00  0.000000000000E+00  0.000000000000E+00
  0.000000000000E+00  0.000000000000E+00  0.000000000000E+00  0.000000000000E+00
  0.000000000000E+00  0.000000000000E+00  0.000000000000E+00  0.000000000000E+00
  0.000000000000E+00  0.000000000000E+00  0.000000000000E+00  0.000000000000E+00
  0.000000000000E+00  0.000000000000E+00  0.000000000000E+00  0.000000000000E+00
  0.000000000000E+00  0.000000000000E+00  0.000000000000E+00  0.000000000000E+00
  0.000000000000E+00  0.000000000000E+00
</data>
</radfunc>
</pseudocore-charge>
<semilocal-potentials set="scalar_relativistic">
<slps n="3" l="s" rc="1.35662928595">
<radfunc>
<data npts="290">
  7.688312927631E+00  7.682664798504E+00  7.665795691938E+00  7.637691727338E+00
  7.598698554164E+00  7.547569336143E+00  7.482639536998E+00  7.408609110174E+00
  7.325774854333E+00  7.229714381270E+00  7.122125392717E+00  7.006002024106E+00
  6.866785581771E+00  6.722687150413E+00  6.554384677632E+00  6.388095636354E+00
  6.198796380272E+00  6.021486398295E+00  5.824582595342E+00  5.606295451629E+00
  5.364764355640E+00  5.153521150502E+00  4.925190384524E+00  4.678785572272E+00
  4.413336956447E+00  4.127907753545E+00  3.821612804570E+00  3.577706297580E+00
  3.321295297586E+00  3.052107543493E+00  2.769913279249E+00  2.474531745980E+00
  2.165837829971E+00  1.843768766568E+00  1.508330783643E+00  1.159605553161E+00
  7.977563064977E-01  4.230334595367E-01  1.662314770686E-01 -9.601668886987E-02
 -3.635664005496E-01 -6.362531725706E-01 -9.138924168053E-01 -1.196279293321E+00
 -1.483188672251E+00 -1.774375209953E+00 -2.069573540954E+00 -2.368498585191E+00
 -2.670845967669E+00 -2.976292545302E+00 -3.284497032957E+00 -3.595100718049E+00
 -3.907728250161E+00 -4.221988489330E+00 -4.537475393907E+00 -4.853768926206E+00
 -5.170435951761E+00 -5.487031105858E+00 -5.803097599277E+00 -6.118167933965E+00
 -6.431764498710E+00 -6.743400014764E+00 -7.052577802843E+00 -7.358791844436E+00
 -7.661526614094E+00 -7.960256664892E+00 -8.254445957163E+00 -8.399667187083E+00
 -8.543546932440E+00 -8.686014757874E+00 -8.826999351870E+00 -8.966428480943E+00
 -9.104228942835E+00 -9.240326519672E+00 -9.374645932505E+00 -9.507110798770E+00
 -9.637643594555E+00 -9.766165623956E+00 -9.892596998050E+00 -1.001685662649E+01
 -1.013886222492E+01 -1.025853034200E+01 -1.037577640966E+01 -1.049051482086E+01
 -1.060265903866E+01 -1.071212174054E+01 -1.081881500129E+01 -1.092265051701E+01
 -1.102353987173E+01 -1.112139484650E+01 -1.121612776901E+01 -1.130765189945E+01
 -1.139588184570E+01 -1.148073399846E+01 -1.156212697393E+01 -1.163998204981E+01
 -1.171422357831E+01 -1.178477935934E+01 -1.185158095759E+01 -1.191456394921E+01
 -1.197366808729E+01 -1.202883738052E+01 -1.208002008550E+01 -1.212716862035E+01
 -1.217023941367E+01 -1.220919270956E+01 -1.224399235351E+01 -1.227460558649E+01
 -1.230100287422E+01 -1.232315779589E+01 -1.234104701098E+01 -1.235465031617E+01
 -1.236395079625E+01 -1.236893506470E+01 -1.236959358247E+01 -1.236592103730E+01
 -1.235791676141E+01 -1.234558516283E+01 -1.232893614410E+01 -1.230798548243E+01
 -1.228275514603E+01 -1.225327352332E+01 -1.221957554335E+01 -1.218170266900E+01
 -1.213970274727E+01 -1.209362970562E+01 -1.204354308815E+01 -1.198950743223E+01
 -1.193159149362E+01 -1.186986733714E+01 -1.180440931937E+01 -1.173529299994E+01
 -1.166259402754E+01 -1.158638705577E+01 -1.150674475133E+01 -1.142373696306E+01
 -1.133743012366E+01 -1.124788695754E+01 -1.115516656683E+01 -1.105932496434E+01
 -1.096041611573E+01 -1.085849354493E+01 -1.075361254475E+01 -1.064583302072E+01
 -1.053522297768E+01 -1.042186263748E+01 -1.030584915015E+01 -1.018730183109E+01
 -1.006636782242E+01 -9.943228038116E+00 -9.818103211029E+00 -9.691259815550E+00
 -9.563015595398E+00 -9.433744383503E+00 -9.303879863862E+00 -9.173917897234E+00