<?xml version="1.0" encoding="UTF-8" ?>
<psml version="1.1" energy_unit="hartree" length_unit="bohr"
 uuid="3c1850c0-44c6-11e8-650f-8fd3dd5bc2f6"
 xmlns="http://esl.cecam.org/PSML/ns/1.1">
<provenance creator="ONCVPSP-3.3.0+psml-3.3.0-73 (fully-relativistic)"
 date="2018-04-20">
<annotation action="semilocal-pseudopotential-generation"
 action-cont="projectors-generation" />
<input-file name="oncvpsp-input">
<![CDATA[# atsym z nc nv iexc psfile
Ir 77 10 4 4 both
# n l f
1 0 2.0
2 0 2.0
2 1 6.0
3 0 2.0
3 1 6.0
3 2 10.0
4 0 2.0
4 1 6.0
4 2 10.0
4 3 14.0
5 0 2.0
5 1 6.0
5 2 7.0
6 0 2.0
# lmax
3
# l rc ep ncon nbas qcut
0 1.6 0.0 4 8 8.1
1 1.6 0.0 4 8 8.1
2 1.5 0.0 4 8 8.4
3 2.25 0.5 4 8 6.8
# lloc lpopt rc5 dvloc0
4 5 1.5 0.0
# l nproj debl
0 2 1.2
1 2 2.5
2 2 1.0
3 2 3.0
# icmod fcfact rcfact
3 5.0 1.37
# epsh1 epsh2 depsh
-14.0 12.0 0.02
# rlmax drl
5.0 0.01
 0
]]>
</input-file>
</provenance>
<pseudo-atom-spec atomic-label="Ir" atomic-number="77" z-pseudo="17"
 flavor="Hamann&apos;s oncvpsp" relativity="dirac" spin-dft="no"
 core-corrections="yes">
<annotation pseudo-energy="-106.294801503" />
<exchange-correlation>
<annotation oncvpsp-xc-code="4" oncvpsp-xc-type="GGA -- Perdew-Burke-Ernzerhof" />
<libxc-info number-of-functionals="2">
<functional name="Perdew, Burke &amp; Ernzerhof (GGA)" type="exchange" id="101" />
<functional name="Perdew, Burke &amp; Ernzerhof (GGA)" type="correlation"
 id="130" />
</libxc-info>
</exchange-correlation>
<valence-configuration total-valence-charge="17">
<shell n="5" l="s" occupation="2" />
<shell n="5" l="p" occupation="6" />
<shell n="5" l="d" occupation="7" />
<shell n="6" l="s" occupation="2" />
</valence-configuration>
</pseudo-atom-spec>
<grid npts="457">
<annotation type="sampled from oncvpsp log grid"
 recipe="r(i:1..N) = r1*exp(a*(i-1)) + r=0; resampled"
 recipe-cont="r1: scale; a: step" scale="0.649350649351E-05"
 step="0.119285708653E-01" delta="0.500000000000E-02" rmax="44.2155744394" />
<grid-data>
  0.000000000000E+00  5.048998669752E-03  1.008497861164E-02  1.512907607261E-02
  2.014395333605E-02  2.526820806223E-02  3.058177187380E-02  3.571159986911E-02
  4.071879753945E-02  4.587753439355E-02  5.107691777807E-02  5.619126148361E-02
  6.181770561879E-02  6.720111355653E-02  7.305333671047E-02  7.847351971603E-02
  8.429585250881E-02  8.947645508006E-02  9.497544393250E-02  1.008123862541E-01
  1.070080517809E-01  1.122376350817E-01  1.177227929962E-01  1.234760156942E-01
  1.295104037517E-01  1.358396979821E-01  1.424783107250E-01  1.476693267439E-01
  1.530494708284E-01  1.586256336191E-01  1.644049568082E-01  1.703948422864E-01
  1.766029616229E-01  1.830372658906E-01  1.897059958500E-01  1.966176925027E-01
  2.037812080314E-01  2.112057171363E-01  2.163050679708E-01  2.215275375319E-01
  2.268760983981E-01  2.323537949178E-01  2.379637449423E-01  2.437091416002E-01
  2.495932551150E-01  2.556194346665E-01  2.617911102971E-01  2.681117948641E-01
  2.745850860393E-01  2.812146683566E-01  2.880043153094E-01  2.949578914983E-01
  3.020793548306E-01  3.093727587736E-01  3.168422546615E-01  3.244920940580E-01
  3.323266311769E-01  3.403503253601E-01  3.485677436156E-01  3.569835632174E-01
  3.656025743677E-01  3.744296829233E-01  3.834699131878E-01  3.927284107718E-01
  4.022104455215E-01  4.119214145181E-01  4.218668451502E-01  4.269292472921E-01
  4.320523982596E-01  4.372370270387E-01  4.424838713631E-01  4.477936778195E-01
  4.531672019533E-01  4.586052083768E-01  4.641084708773E-01  4.696777725278E-01
  4.753139057981E-01  4.810176726677E-01  4.867898847397E-01  4.926313633566E-01
  4.985429397169E-01  5.045254549935E-01  5.105797604534E-01  5.167067175789E-01
  5.229071981898E-01  5.291820845681E-01  5.355322695829E-01  5.419586568179E-01
  5.484621606997E-01  5.550437066281E-01  5.617042311076E-01  5.684446818809E-01
  5.752660180635E-01  5.821692102803E-01  5.891552408036E-01  5.962251036933E-01
  6.033798049376E-01  6.106203625968E-01  6.179478069480E-01  6.253631806314E-01
  6.328675387990E-01  6.404619492646E-01  6.481474926557E-01  6.559252625676E-01
  6.637963657184E-01  6.717619221070E-01  6.798230651723E-01  6.879809419544E-01
  6.962367132578E-01  7.045915538169E-01  7.130466524627E-01  7.216032122923E-01
  7.302624508398E-01  7.390256002499E-01  7.478939074529E-01  7.568686343423E-01
  7.659510579544E-01  7.751424706499E-01  7.844441802977E-01  7.938575104612E-01
  8.033838005868E-01  8.130244061938E-01  8.227806990681E-01  8.326540674569E-01
  8.426459162664E-01  8.527576672616E-01  8.629907592688E-01  8.733466483800E-01
  8.838268081606E-01  8.944327298585E-01  9.051659226168E-01  9.160279136882E-01
  9.270202486524E-01  9.381444916363E-01  9.494022255359E-01  9.607950522423E-01
  9.723245928692E-01  9.839924879837E-01  9.958003978395E-01  1.007750002614E+00
  1.019843002645E+00  1.032081118677E+00  1.044466092101E+00  1.056999685206E+00
  1.069683681428E+00  1.082519885606E+00  1.095510124233E+00  1.108656245724E+00
  1.121960120672E+00  1.135423642120E+00  1.149048725826E+00  1.162837310536E+00
  1.176791358262E+00  1.190912854561E+00  1.205203808816E+00  1.219666254522E+00
  1.234302249576E+00  1.249113876571E+00  1.264103243090E+00  1.279272482007E+00
  1.294623751791E+00  1.310159236813E+00  1.325881147654E+00  1.341791721426E+00
  1.357893222083E+00  1.374187940748E+00  1.390678196037E+00  1.407366334390E+00
  1.424254730402E+00  1.441345787167E+00  1.458641936613E+00  1.476145639853E+00
  1.493859387531E+00  1.511785700181E+00  1.529927128583E+00  1.548286254126E+00
  1.566865689176E+00  1.585668077446E+00  1.604696094375E+00  1.623952447508E+00
  1.643439876878E+00  1.663161155400E+00  1.683119089265E+00  1.703316518336E+00
  1.723756316556E+00  1.744441392355E+00  1.765374689063E+00  1.786559185332E+00
  1.807997895556E+00  1.829693870303E+00  1.851650196746E+00  1.873869999107E+00
  1.896356439097E+00  1.919112716366E+00  1.942142068962E+00  1.965447773790E+00
  1.989033147075E+00  2.012901544840E+00  2.037056363378E+00  2.061501039739E+00
  2.086239052216E+00  2.111273920842E+00  2.136609207892E+00  2.162248518387E+00
  2.188195500608E+00  2.214453846615E+00  2.241027292774E+00  2.267919620288E+00
  2.295134655731E+00  2.322676271600E+00  2.350548386859E+00  2.378754967501E+00
  2.407300027111E+00  2.436187627437E+00  2.465421878966E+00  2.495006941514E+00
  2.524947024812E+00  2.555246389110E+00  2.585909345779E+00  2.616940257928E+00
  2.648343541023E+00  2.680123663516E+00  2.712285147478E+00  2.744832569248E+00
  2.777770560079E+00  2.811103806799E+00  2.844837052481E+00  2.878975097111E+00
  2.913522798276E+00  2.948485071855E+00  2.983866892718E+00  3.019673295430E+00
  3.055909374976E+00  3.092580287475E+00  3.129691250925E+00  3.167247545936E+00
  3.205254516487E+00  3.243717570685E+00  3.282642181533E+00  3.322033887712E+00
  3.361898294364E+00  3.402241073897E+00  3.443067966783E+00  3.484384782385E+00
  3.526197399773E+00  3.568511768571E+00  3.611333909794E+00  3.654669916711E+00
  3.698525955712E+00  3.742908267180E+00  3.787823166386E+00  3.833277044383E+00
  3.879276368916E+00  3.925827685342E+00  3.972937617567E+00  4.020612868977E+00
  4.068860223405E+00  4.117686546086E+00  4.167098784639E+00  4.217103970055E+00
  4.267709217695E+00  4.318921728308E+00  4.370748789047E+00  4.423197774516E+00
  4.476276147810E+00  4.529991461584E+00  4.584351359123E+00  4.639363575432E+00
  4.695035938338E+00  4.751376369598E+00  4.808392886033E+00  4.866093600665E+00
  4.924486723873E+00  4.983580564560E+00  5.043383531334E+00  5.103904133710E+00
  5.165150983315E+00  5.227132795115E+00  5.289858388656E+00  5.353336689320E+00
  5.417576729592E+00  5.482587650347E+00  5.548378702151E+00  5.614959246577E+00
  5.682338757536E+00  5.750526822626E+00  5.819533144498E+00  5.889367542232E+00
  5.960039952738E+00  6.031560432171E+00  6.103939157357E+00  6.177186427246E+00
  6.251312664373E+00  6.326328416345E+00  6.402244357341E+00  6.479071289629E+00
  6.556820145105E+00  6.635501986846E+00  6.715128010688E+00  6.795709546817E+00
  6.877258061378E+00  6.959785158115E+00  7.043302580012E+00  7.127822210972E+00
  7.213356077504E+00  7.299916350434E+00  7.387515346639E+00  7.476165530799E+00
  7.565879517169E+00  7.656670071375E+00  7.748550112231E+00  7.841532713578E+00
  7.935631106141E+00  8.030858679414E+00  8.127228983567E+00  8.224755731370E+00
  8.323452800147E+00  8.423334233748E+00  8.524414244553E+00  8.626707215488E+00
  8.730227702074E+00  8.834990434499E+00  8.941010319713E+00  9.048302443549E+00
  9.156882072872E+00  9.266764657746E+00  9.377965833639E+00  9.490501423643E+00
  9.604387440727E+00  9.719640090015E+00  9.836275771096E+00  9.954311080349E+00
  1.007376281331E+01  1.019464796707E+01  1.031698374268E+01  1.044078754759E+01
  1.056607699816E+01  1.069286992214E+01  1.082118436120E+01  1.095103857354E+01
  1.108245103642E+01  1.121544044886E+01  1.135002573424E+01  1.148622604306E+01
  1.162406075557E+01  1.176354948464E+01  1.190471207845E+01  1.204756862340E+01
  1.219213944688E+01  1.233844512024E+01  1.248650646168E+01  1.263634453922E+01
  1.278798067369E+01  1.294143644178E+01  1.309673367908E+01  1.325389448323E+01
  1.341294121703E+01  1.357389651163E+01  1.373678326977E+01  1.390162466901E+01
  1.406844416504E+01  1.423726549502E+01  1.440811268096E+01  1.458101003313E+01
  1.475598215353E+01  1.493305393937E+01  1.511225058664E+01  1.529359759368E+01
  1.547712076480E+01  1.566284621398E+01  1.585080036855E+01  1.604100997297E+01
  1.623350209265E+01  1.642830411776E+01  1.662544376717E+01  1.682494909238E+01
  1.702684848149E+01  1.723117066327E+01  1.743794471122E+01  1.764720004776E+01
  1.785896644833E+01  1.807327404571E+01  1.829015333426E+01  1.850963517427E+01
  1.873175079636E+01  1.895653180592E+01  1.918401018759E+01  1.941421830984E+01
  1.964718892956E+01  1.988295519671E+01  2.012155065907E+01  2.036300926698E+01
  2.060736537819E+01  2.085465376273E+01  2.110490960788E+01  2.135816852317E+01
  2.161446654545E+01  2.187384014400E+01  2.213632622572E+01  2.240196214043E+01
  2.267078568612E+01  2.294283511435E+01  2.321814913572E+01  2.349676692535E+01
  2.377872812846E+01  2.406407286600E+01  2.435284174039E+01  2.464507584128E+01
  2.494081675137E+01  2.524010655239E+01  2.554298783102E+01  2.584950368499E+01
  2.615969772921E+01  2.647361410196E+01  2.679129747118E+01  2.711279304084E+01
  2.743814655733E+01  2.776740431601E+01  2.810061316781E+01  2.843782052582E+01
  2.877907437213E+01  2.912442326459E+01  2.947391634377E+01  2.982760333990E+01
  3.018553457997E+01  3.054776099493E+01  3.091433412687E+01  3.128530613640E+01
  3.166072981003E+01  3.204065856775E+01  3.242514647057E+01  3.281424822821E+01
  3.320801920695E+01  3.360651543743E+01  3.400979362268E+01  3.441791114616E+01
  3.483092607991E+01  3.524889719287E+01  3.567188395918E+01  3.609994656669E+01
  3.653314592549E+01  3.697154367660E+01  3.741520220072E+01  3.786418462713E+01
  3.831855484265E+01  3.877837750076E+01  3.924371803077E+01  3.971464264714E+01
  4.019121835891E+01  4.067351297922E+01  4.116159513497E+01  4.165553427659E+01
  4.215540068790E+01  4.266126549616E+01  4.317320068211E+01  4.369127909030E+01
  4.421557443938E+01
</grid-data>
</grid>
<valence-charge total-charge="17" is-unscreening-charge="yes"
 rescaled-to-z-pseudo="no">
<radfunc>
<data npts="457">
  2.802810278917E+00  2.804049246744E+00  2.807753090606E+00  2.813932917612E+00
  2.822526128679E+00  2.833827300322E+00  2.848233810734E+00  2.864735065988E+00
  2.883294755832E+00  2.904946013443E+00  2.929360618294E+00  2.955909496790E+00
  2.988011749361E+00  3.021558289778E+00  3.061156099183E+00  3.100728102924E+00
  3.146327460985E+00  3.189581199052E+00  3.238241567105E+00  3.292973253047E+00
  3.354519461824E+00  3.409217531791E+00  3.469274955658E+00  3.535202674916E+00
  3.607557086056E+00  3.686943299629E+00  3.774018426726E+00  3.844796983200E+00
  3.920621991155E+00  4.001834548408E+00  4.088795544935E+00  4.181886202242E+00
  4.281508494415E+00  4.388085415239E+00  4.502061048716E+00  4.623900392199E+00
  4.754088871840E+00  4.893131479192E+00  4.991003198380E+00  5.093201460370E+00
  5.199888354328E+00  5.311228506849E+00  5.427388621389E+00  5.548536933862E+00
  5.674842574492E+00  5.806474825104E+00  5.943602260136E+00  6.086391758666E+00
  6.235007373789E+00  6.389609044699E+00  6.550351135861E+00  6.717380786735E+00
  6.890836054678E+00  7.070843832884E+00  7.257517524666E+00  7.450954454984E+00
  7.651233000054E+00  7.858409416113E+00  8.072514349150E+00  8.293549008669E+00
  8.521480990526E+00  8.756239736620E+00  8.997711623035E+00  9.245734673097E+00
  9.500092898126E+00  9.760510276470E+00  1.002664439109E+01  1.016172842790E+01
  1.029807975754E+01  1.043563388957E+01  1.057432088825E+01  1.071406514591E+01
  1.085478515515E+01  1.099639328075E+01  1.113879553206E+01  1.128189133722E+01
  1.142557331997E+01  1.156972708076E+01  1.171423098318E+01  1.185895594740E+01
  1.200376525230E+01  1.214851434792E+01  1.229305068034E+01  1.243721353084E+01
  1.258083387173E+01  1.272373424105E+01  1.286572863876E+01  1.300662244694E+01
  1.314621237685E+01  1.328428644567E+01  1.342062398612E+01  1.355499569186E+01
  1.368716370221E+01  1.381688172922E+01  1.394389523085E+01  1.406794163341E+01
  1.418875060693E+01  1.430604439689E+01  1.441953821574E+01  1.452894069763E+01
  1.463395441945E+01  1.473427649143E+01  1.482959922007E+01  1.491961084595E+01
  1.500399635872E+01  1.508243839111E+01  1.515461819328E+01  1.522021668848E+01
  1.527891561003E+01  1.533039871935E+01  1.537435310374E+01  1.541047055177E+01
  1.543844900335E+01  1.545799407049E+01  1.546882062372E+01  1.547065443799E+01
  1.546323389070E+01  1.544631170351E+01  1.541965671801E+01  1.538305569435E+01
  1.533631512072E+01  1.527926302010E+01  1.521175074003E+01  1.513365470953E+01
  1.504487814684E+01  1.494535270053E+01  1.483504000595E+01  1.471393313852E+01
  1.458205794510E+01  1.443947423464E+01  1.428627680947E+01  1.412259631932E+01
  1.394859992072E+01  1.376449172570E+01  1.357051302507E+01  1.336694227337E+01
  1.315409482441E+01  1.293232240883E+01  1.270201234745E+01  1.246358649692E+01
  1.221749992720E+01  1.196423933308E+01  1.170432118527E+01  1.143828962935E+01
  1.116671414378E+01  1.089018697105E+01  1.060932033839E+01  1.032474348690E+01
  1.003709952963E+01  9.747042161236E+00  9.455232242392E+00  9.162334283841E+00
  8.869012854878E+00  8.575928941769E+00  8.283736281527E+00  7.993077696418E+00
  7.704581454433E+00  7.418857680845E+00  7.136494845945E+00  6.858056354233E+00
  6.584077260737E+00  6.315061140809E+00  6.051477140680E+00  5.793757237203E+00
  5.542293736456E+00  5.297437042154E+00  5.059493725858E+00  4.828724931621E+00
  4.605345147774E+00  4.389521377721E+00  4.181372739740E+00  3.980970522648E+00
  3.788338719716E+00  3.603455057271E+00  3.426253091981E+00  3.256627133251E+00
  3.094438932299E+00  2.939521536719E+00  2.791682027702E+00  2.650706133531E+00
  2.516365978306E+00  2.388429467118E+00  2.266661820035E+00  2.150827107545E+00
  2.040689539320E+00  1.936014657409E+00  1.836570394954E+00  1.742128013226E+00
  1.652462921798E+00  1.567355387898E+00  1.486591141222E+00  1.409961880763E+00
  1.337265690274E+00  1.268307369104E+00  1.202898684919E+00  1.140858555240E+00
  1.082013163979E+00  1.026196019210E+00  9.732479586758E-01  9.230171084050E-01
  8.753588002382E-01  8.301354534917E-01  7.872164257239E-01  7.464778372604E-01
  7.078023738110E-01  6.710790711904E-01  6.362030858342E-01  6.030754544853E-01
  5.716028461188E-01  5.416973088718E-01  5.132760144572E-01  4.862610022638E-01
  4.605789250819E-01  4.361607981454E-01  4.129417529469E-01  3.908607970647E-01
  3.698605810386E-01  3.498871731417E-01  3.308898427268E-01  3.128208526678E-01
  2.956352612750E-01  2.792907339367E-01  2.637473646261E-01  2.489675073116E-01
  2.349156172205E-01  2.215581018333E-01  2.088631814168E-01  1.968007588512E-01
  1.853422984641E-01  1.744607135424E-01  1.641302621703E-01  1.543264510164E-01
  1.450259466809E-01  1.362064942028E-01  1.278468423253E-01  1.199266751159E-01
  1.124265495437E-01  1.053278386230E-01  9.861267974059E-02  9.226392779966E-02
  8.626511282107E-02  8.060040166135E-02  7.525456351833E-02  7.021293891128E-02
  6.546141183613E-02  6.098638481088E-02  5.677475654312E-02  5.281390195055E-02
  4.909165430366E-02  4.559628924779E-02  4.231651048503E-02  3.924143690588E-02
  3.636059097221E-02  3.366388816469E-02  3.114162732010E-02  2.878448169585E-02
  2.658349061250E-02  2.453005153748E-02  2.261591248764E-02  2.083316464133E-02
  1.917423506536E-02  1.763187947589E-02  1.619917496604E-02  1.486951264672E-02
  1.363659015965E-02  1.249440403396E-02  1.143724186873E-02  1.045967433407E-02
  9.556546992393E-03  8.722971949547E-03  7.954319351834E-03  7.246208750844E-03
  6.594500362082E-03  5.995286246690E-03  5.444881447730E-03  4.939815113707E-03
  4.476821642342E-03  4.052831877211E-03  3.664964388740E-03  3.310516869451E-03
  2.986957671188E-03  2.691917509626E-03  2.423181358598E-03  2.178680553891E-03
  1.956485123135E-03  1.754796355394E-03  1.571939621103E-03  1.406357450153E-03
  1.256602873232E-03  1.121333029063E-03  9.993030379639E-04  8.893601401979E-04
  7.904380958741E-04  7.015518418411E-04  6.217923997925E-04  5.503220289617E-04
  4.863696163738E-04  4.292262968485E-04  3.782412949810E-04  3.328179812401E-04
  2.924101342978E-04  2.565184018796E-04  2.246869526333E-04  1.965003117510E-04
  1.715803733410E-04  1.495835828059E-04  1.301982827289E-04  1.131422160007E-04
  9.816018011404E-05  8.502182672722E-05  7.351960073482E-05  6.346681320169E-05
  5.469584260364E-05  4.705645889132E-05  4.041426495089E-05  3.464925008384E-05
  2.965445017347E-05  2.533470925145E-05  2.160553722855E-05  1.839205861266E-05
  1.562804710713E-05  1.325504106489E-05  1.122153487062E-05  9.482241433988E-06
  7.997421102600E-06  6.732272442616E-06  5.656380487071E-06  4.743218215804E-06
  3.969697204619E-06  3.315763563356E-06  2.764035471034E-06  2.299478809316E-06
  1.909117591383E-06  1.581776080124E-06  1.307849685673E-06  1.079101926269E-06
  8.884849266912E-07  7.299811140092E-07  5.984639500017E-07  4.895757123787E-07
  3.996205023105E-07  3.254708130451E-07  2.644861432533E-07  2.144422788811E-07
  1.734699985962E-07  1.400020803549E-07  1.127276002767E-07  9.055262005912E-08
  7.256645583453E-08  5.801280996250E-08  4.626512811376E-08  3.680561751773E-08
  2.920742882349E-08  2.311956409183E-08  1.825412742769E-08  1.437558311554E-08
  1.129172926770E-08  8.846133360336E-09  6.911810024796E-09  5.385951475734E-09
  4.185547366833E-09  3.243754023109E-09  2.506893236916E-09  1.931978441207E-09
  1.484681373699E-09  1.137665581764E-09  8.692245301496E-10  6.621718804599E-10
  5.029399103871E-10  3.808492099539E-10  2.875188911498E-10  2.163917186147E-10
  1.623529388800E-10  1.214252658614E-10  9.052556917171E-11  6.727139558596E-11
  4.982760785944E-11  3.678521444805E-11  2.706594505873E-11  1.984734912359E-11
  1.450419906546E-11  1.056280337761E-11  7.665506518982E-12  5.543199219260E-12
  3.994105594100E-12  2.857258502364E-12  2.044053853970E-12  1.456851794669E-12
  9.917169053676E-13  7.018723944947E-13  4.948226590727E-13  3.474897297448E-13
  2.430608976874E-13  1.693356696200E-13  1.174955098781E-13  8.119186954966E-14
  5.587287049324E-14  3.828820908652E-14  2.612660247088E-14  1.775139780743E-14
  1.200857729541E-14  8.087928679626E-15  5.423091298697E-15  3.619905056051E-15
  2.405274427619E-15  1.590836402977E-15  1.047263074308E-15  6.861690166725E-16
  4.474317729338E-16  2.903474406118E-16  1.874905588098E-16  1.204718200388E-16
  7.702121032744E-17  4.899229839901E-17  3.100354850449E-17  1.951794909568E-17
  1.222275396973E-17  7.613577395304E-18  4.716996166857E-18  2.906505863451E-18
  1.781055005593E-18  1.085313217165E-18  6.576204607467E-19  3.961945440294E-19
  2.373147540150E-19  1.413168114622E-19  8.365370160948E-20  4.922296488007E-20
  2.878792113206E-20  1.673327857176E-20  9.666023904182E-21  5.548534131380E-21
  3.164749271996E-21  1.793484593061E-21  1.009763041145E-21  5.647683713644E-22
  3.137733309353E-22  0.000000000000E+00  0.000000000000E+00  0.000000000000E+00
  0.000000000000E+00  0.000000000000E+00  0.000000000000E+00  0.000000000000E+00
  0.000000000000E+00  0.000000000000E+00  0.000000000000E+00  0.000000000000E+00
  0.000000000000E+00  0.000000000000E+00  0.000000000000E+00  0.000000000000E+00
  0.000000000000E+00  0.000000000000E+00  0.000000000000E+00  0.000000000000E+00
  0.000000000000E+00
</data>
</radfunc>
</valence-charge>
<pseudocore-charge matching-radius="0.842645916266"
 number-of-continuous-derivatives="4">
<annotation model-charge-form="Teter function with specified parameters" />
<radfunc>
<data npts="275">
  7.978445416070E+01  7.977963246597E+01  7.976521870764E+01  7.974117129965E+01
  7.970773651052E+01  7.966377213236E+01  7.960773812199E+01  7.954357157787E+01
  7.947141962422E+01  7.938727426471E+01  7.929242185059E+01  7.918931632557E+01
  7.906469701865E+01  7.893453286476E+01  7.878096950463E+01  7.862759208255E+01
  7.845095817506E+01  7.828351267697E+01  7.809525415820E+01  7.788365272801E+01
  7.764588633293E+01  7.743473341994E+01  7.720305884432E+01  7.694893639911E+01
  7.667027340496E+01  7.636479938022E+01  7.603005463029E+01  7.575819472399E+01
  7.546717815854E+01  7.515573569348E+01  7.482252639095E+01  7.446613553697E+01
  7.408507285675E+01  7.367777110336E+01  7.324258511127E+01  7.277779141957E+01
  7.228158858464E+01  7.175209831802E+01  7.137965032187E+01  7.099094488892E+01
  7.058537196255E+01  7.016230862102E+01  6.972111992289E+01  6.926115990937E+01
  6.878177277837E+01  6.828229424572E+01  6.776205311014E+01  6.722037303907E+01
  6.665657459330E+01  6.606997750888E+01  6.545990325552E+01  6.482567789089E+01
  6.416663523067E+01  6.348212035399E+01  6.277149346404E+01  6.203413412283E+01
  6.126944587842E+01  6.047686130171E+01  5.965584744798E+01  5.880591175645E+01
  5.792660839794E+01  5.701754507739E+01  5.607839029358E+01  5.510888105303E+01
  5.410883102932E+01  5.307813915118E+01  5.201679859498E+01  5.147466099820E+01
  5.092490614714E+01  5.036756391867E+01  4.980267189132E+01  4.923027566161E+01
  4.865042916277E+01  4.806319498535E+01  4.746864469862E+01  4.686685917233E+01
  4.625792889754E+01  4.564195430585E+01  4.501904608573E+01  4.438932549498E+01
  4.375292466801E+01  4.310998691672E+01  4.246066702354E+01  4.180513152514E+01
  4.114355898535E+01  4.047614025562E+01  3.980307872121E+01  3.912459053140E+01
  3.844090481180E+01  3.775226385677E+01  3.705892329983E+01  3.636115226005E+01
  3.565923346206E+01  3.495346332749E+01  3.424415203548E+01  3.353162354980E+01
  3.281621561015E+01  3.209827968518E+01  3.137818088466E+01  3.065629782826E+01
  2.993302246839E+01  2.920875986459E+01  2.848392790690E+01  2.775895698585E+01
  2.703428960645E+01  2.631037994416E+01  2.558769334035E+01  2.486670573534E+01
  2.414790303701E+01  2.343178042331E+01  2.271884157712E+01  2.200959785209E+01
  2.130456736873E+01  2.060427403974E+01  1.990924652447E+01  1.922001711253E+01
  1.853712053691E+01  1.786109271766E+01  1.719246943750E+01  1.653178495123E+01
  1.587957053162E+01  1.523635295476E+01  1.460265292859E+01  1.397898346911E+01
  1.336584822931E+01  1.276373978659E+01  1.217313789525E+01  1.159450771125E+01
  1.102829799738E+01  1.047493931745E+01  9.934842229205E+00  9.408395486028E+00
  8.895964258568E+00  8.397888387780E+00  7.914480681710E+00  7.446025268824E+00
  6.992776021212E+00  6.554955061406E+00  6.132751366875E+00  5.726319486481E+00
  5.335778383247E+00  4.961210417772E+00  4.602660486386E+00  4.260135327821E+00
  3.933603011596E+00  3.622992620608E+00  3.328194139504E+00  3.049058559246E+00
  2.785398206994E+00  2.536987308842E+00  2.303562791197E+00  2.084825324623E+00
  1.880440611779E+00  1.690040918760E+00  1.513226846554E+00  1.349569336712E+00
  1.198611902448E+00  1.059873073521E+00  9.328490402747E-01  8.170164792091E-01
  7.118355395194E-01  6.167529671588E-01  5.312053402325E-01  4.546223869874E-01
  3.864303553599E-01  3.260554010650E-01  2.729269596013E-01  2.264810663726E-01
  1.861635884547E-01  1.514333313979E-01  1.217649849179E-01  9.665187241366E-02
  7.560847099428E-02  5.817267110415E-02  4.390774791882E-02  3.240402041111E-02
  2.328017833707E-02  1.618426230463E-02  1.079428749641E-02  6.818507429650E-03
  3.995320243540E-03  2.092826280109E-03  9.080520283601E-04  2.658616791613E-04
  1.758342772716E-05  3.938309474304E-05  2.304224500762E-04  5.108436547510E-04
  8.196243401065E-04  1.112349889291E-03  1.358950372247E-03  1.541449239272E-03
  1.651769265187E-03  1.689638362875E-03  1.660633803131E-03  1.574398185933E-03
  1.443054351547E-03  1.279839488043E-03  1.097971214288E-03  9.097506569089E-04
  7.258997822744E-04  5.551227888280E-04  4.038745089436E-04  2.763127954528E-04
  1.744070286197E-04  9.817138228599E-05  4.598948241015E-05  1.499665671679E-05
  1.487111867221E-06  1.316003100190E-06  1.027031707213E-05  2.438753134219E-05
  4.020683755078E-05  5.494396419840E-05  6.658692459438E-05  7.391595704367E-05
  7.645615055212E-05  7.437544155442E-05  6.834357982372E-05  5.936914296993E-05
  4.863168510269E-05  3.732470724039E-05  2.652251750005E-05  1.708048954108E-05
  9.574086300859E-06  4.277696909583E-06  1.180251458883E-06  3.111486006933E-08
  4.072331601944E-07  1.791128117557E-06  3.649198444469E-06  5.500842717054E-06
  6.970990926502E-06  7.821427131420E-06  7.959432979267E-06  7.425374094518E-06
  6.363497166984E-06  4.982080011077E-06  3.509964966455E-06  2.156333112885E-06
  1.079419941714E-06  3.679509066890E-07  3.671590750259E-08  0.000000000000E+00
  0.000000000000E+00  0.000000000000E+00  0.000000000000E+00  0.000000000000E+00
  0.000000000000E+00  0.000000000000E+00  0.000000000000E+00  0.000000000000E+00
  0.000000000000E+00  0.000000000000E+00  0.000000000000E+00  0.000000000000E+00
  0.000000000000E+00  0.000000000000E+00  0.000000000000E+00  0.000000000000E+00
  0.000000000000E+00  0.000000000000E+00  0.000000000000E+00  0.000000000000E+00
  0.000000000000E+00  0.000000000000E+00  0.000000000000E+00  0.000000000000E+00
  0.000000000000E+00  0.000000000000E+00  0.000000000000E+00  0.000000000000E+00
  0.000000000000E+00  0.000000000000E+00  0.000000000000E+00
</data>
</radfunc>
</pseudocore-charge>
<semilocal-potentials set="scalar_relativistic">
<slps n="5" l="s" rc="1.60469609438">
<radfunc>
<data npts="275">
 -9.787146626570E+00 -9.788594924868E+00 -9.792923155770E+00 -9.800140113903E+00
 -9.810165825292E+00 -9.823333844607E+00 -9.840092117572E+00 -9.859248562580E+00
 -9.880745676340E+00 -9.905758375816E+00 -9.933879487592E+00 -9.964358392847E+00
 -1.000107368936E+01 -1.003927920386E+01 -1.008416537735E+01 -1.012879580189E+01
 -1.017994564498E+01 -1.022819124949E+01 -1.028215257789E+01 -1.034245214765E+01
 -1.040976610711E+01 -1.046915678950E+01 -1.053390235300E+01 -1.060442359979E+01
 -1.068116199927E+01 -1.076457807629E+01 -1.085514910087E+01 -1.092806769925E+01
 -1.100549771947E+01 -1.108765185658E+01 -1.117474326472E+01 -1.126698393147E+01
 -1.136458280652E+01 -1.146774366889E+01 -1.157666271818E+01 -1.169152587850E+01
 -1.181250580656E+01 -1.193975859987E+01 -1.202814679967E+01 -1.211941836959E+01
 -1.221360254027E+01 -1.231072269235E+01 -1.241079576897E+01 -1.251383166822E+01
 -1.261983261779E+01 -1.272879253417E+01 -1.284069636950E+01 -1.295551944908E+01
 -1.307322680319E+01 -1.319377249719E+01 -1.331709896385E+01 -1.344313634256E+01
 -1.357180182994E+01 -1.370299904668E+01 -1.383661742548E+01 -1.397253162517E+01
 -1.411060097566E+01 -1.425066895871E+01 -1.439256272904E+01 -1.453609267998E+01
 -1.468105205766E+01 -1.482721662724E+01 -1.497434439396E+01 -1.512217538165E+01
 -1.527043147020E+01 -1.541881629326E+01 -1.556701519656E+01 -1.564094160162E+01
 -1.571469525663E+01 -1.578823170449E+01 -1.586150535925E+01 -1.593446951177E+01
 -1.600707633620E+01 -1.607927689734E+01 -1.615102115882E+01 -1.622225799209E+01
 -1.629293518628E+01 -1.636299945879E+01 -1.643239646668E+01 -1.650107081888E+01
 -1.656896608907E+01 -1.663602482944E+01 -1.670218858507E+01 -1.676739790917E+01
 -1.683159237908E+01 -1.689471061304E+01 -1.695669028772E+01 -1.701746815668E+01
 -1.707698006961E+01 -1.713516099257E+01 -1.719194502911E+01 -1.724726544250E+01
 -1.730105467904E+01 -1.735324439256E+01 -1.740376547022E+01 -1.745254805970E+01
 -1.749952159794E+01 -1.754461484155E+01 -1.758775589896E+01 -1.762887226464E+01
 -1.766789085540E+01 -1.770473804907E+01 -1.773933972570E+01 -1.777162131156E+01
 -1.780150782610E+01 -1.782892393214E+01 -1.785379398965E+01 -1.787604211317E+01
 -1.789559223340E+01 -1.791236816306E+01 -1.792629366744E+01 -1.793729253993E+01
 -1.794528868279E+01 -1.795020619364E+01 -1.795196945789E+01 -1.795050324753E+01
 -1.794573282661E+01 -1.793758406395E+01 -1.792598355324E+01 -1.791085874118E+01
 -1.789213806395E+01 -1.786975109264E+01 -1.784362868794E+01 -1.781370316478E+01
 -1.777990846743E+01 -1.774218035565E+01 -1.770045660249E+01 -1.765467720452E+01
 -1.760478460510E+01 -1.755072393152E+01 -1.749244324679E+01 -1.742989381678E+01
 -1.736303039372E+01 -1.729181151683E+01 -1.721619983076E+01 -1.713616242287E+01
 -1.705167117990E+01 -1.696270316479E+01 -1.686924101413E+01 -1.677127335672E+01
 -1.666879525348E+01 -1.656180865877E+01 -1.645032290313E+01 -1.633435519703E+01
 -1.621393115531E+01 -1.608908534167E+01 -1.595986183269E+01 -1.582631480072E+01
 -1.568850911543E+01 -1.554652096408E+01 -1.540043849120E+01 -1.525036245984E+01
 -1.509640693732E+01 -1.493870001121E+01 -1.477738454319E+01 -1.461261897215E+01
 -1.444457818188E+01 -1.427345445366E+01 -1.409945852993E+01 -1.392282082262E+01
 -1.374379280734E+01 -1.356264865434E+01 -1.337968715754E+01 -1.319523403449E+01
 -1.300964468274E+01 -1.282330749152E+01 -1.263664782066E+01 -1.245013277155E+01