<?xml version="1.0" encoding="UTF-8" ?>
<psml version="1.1" energy_unit="hartree" length_unit="bohr"
 uuid="1006d1e0-4305-11e8-770d-7c1cfffca646"
 xmlns="http://esl.cecam.org/PSML/ns/1.1">
<provenance creator="ONCVPSP-3.3.0+psml-3.3.0-73 (fully-relativistic)"
 date="2018-04-18">
<annotation action="semilocal-pseudopotential-generation"
 action-cont="projectors-generation" />
<input-file name="oncvpsp-input">
<![CDATA[# atsym z nc nv iexc psfile
Se 34 5 3 4 both
# n l f
1 0 2.0
2 0 2.0
2 1 6.0
3 0 2.0
3 1 6.0
3 2 10.0
4 0 2.0
4 1 4.0
# lmax
2
# l rc ep ncon nbas qcut
0 1.8 0.0 4 8 5.4
1 1.5 0.0 4 8 7.8
2 1.9 0.0 4 9 9.2
# lloc lpopt rc5 dvloc0
4 5 1.5 0.0
# l nproj debl
0 2 4.5
1 2 4.5
2 2 2.0
# icmod fcfact
3 5 1.4
# epsh1 epsh2 depsh
-12.0 12.0 0.02
# rlmax drl
6.0 0.01
 0
]]>
</input-file>
</provenance>
<pseudo-atom-spec atomic-label="Se" atomic-number="34" z-pseudo="16"
 flavor="Hamann&apos;s oncvpsp" relativity="dirac" spin-dft="no"
 core-corrections="yes">
<annotation pseudo-energy="-111.223374192" />
<exchange-correlation>
<annotation oncvpsp-xc-code="4" oncvpsp-xc-type="GGA -- Perdew-Burke-Ernzerhof" />
<libxc-info number-of-functionals="2">
<functional name="Perdew, Burke &amp; Ernzerhof (GGA)" type="exchange" id="101" />
<functional name="Perdew, Burke &amp; Ernzerhof (GGA)" type="correlation"
 id="130" />
</libxc-info>
</exchange-correlation>
<valence-configuration total-valence-charge="16">
<shell n="3" l="d" occupation="10" />
<shell n="4" l="s" occupation="2" />
<shell n="4" l="p" occupation="4" />
</valence-configuration>
</pseudo-atom-spec>
<grid npts="457">
<annotation type="sampled from oncvpsp log grid"
 recipe="r(i:1..N) = r1*exp(a*(i-1)) + r=0; resampled"
 recipe-cont="r1: scale; a: step" scale="0.147058823529E-04"
 step="0.119285708653E-01" delta="0.500000000000E-02" rmax="43.9674944076" />
<grid-data>
  0.000000000000E+00  5.020670286226E-03  1.002839488868E-02  1.504419146530E-02
  2.027130297145E-02  2.542795312469E-02  3.077510917124E-02  3.593736782770E-02
  4.097622089294E-02  4.616757116937E-02  5.139982494270E-02  5.654650141804E-02
  6.220851581082E-02  6.762595753660E-02  7.264345683615E-02  7.803322885668E-02
  8.382289432527E-02  8.897443012385E-02  9.444256583582E-02  1.002467588636E-01
  1.064076624107E-01  1.116079041230E-01  1.170622864982E-01  1.227832296276E-01
  1.287837605838E-01  1.350775430848E-01  1.416789086070E-01  1.468407994265E-01
  1.521907571722E-01  1.577356338231E-01  1.634825310017E-01  1.694388090690E-01
  1.756120965512E-01  1.820102999105E-01  1.886416136706E-01  1.955145309126E-01
  2.026378541519E-01  2.100207066126E-01  2.150914465530E-01  2.202846144386E-01
  2.256031661696E-01  2.310501290136E-01  2.366286033285E-01  2.423417643273E-01
  2.481928638852E-01  2.541852323908E-01  2.603222806417E-01  2.666075017855E-01
  2.730444733086E-01  2.796368590722E-01  2.863884113976E-01  2.933029732024E-01
  3.003844801874E-01  3.076369630770E-01  3.150645499135E-01  3.226714684067E-01
  3.304620483399E-01  3.384407240350E-01  3.466120368761E-01  3.549806378944E-01
  3.635512904158E-01  3.723288727715E-01  3.813183810757E-01  3.905249320684E-01
  3.999537660283E-01  4.096102497553E-01  4.194998796254E-01  4.245338781809E-01
  4.296282847191E-01  4.347838241357E-01  4.400012300253E-01  4.452812447856E-01
  4.506246197230E-01  4.560321151597E-01  4.615045005416E-01  4.670425545481E-01
  4.726470652027E-01  4.783188299851E-01  4.840586559450E-01  4.898673598163E-01
  4.957457681341E-01  5.016947173517E-01  5.077150539599E-01  5.138076346074E-01
  5.199733262227E-01  5.262130061374E-01  5.325275622111E-01  5.389178929576E-01
  5.453849076731E-01  5.519295265652E-01  5.585526808839E-01  5.652553130546E-01
  5.720383768112E-01  5.789028373329E-01  5.858496713809E-01  5.928798674375E-01
  5.999944258468E-01  6.071943589569E-01  6.144806912644E-01  6.218544595596E-01
  6.293167130743E-01  6.368685136312E-01  6.445109357948E-01  6.522450670243E-01
  6.600720078286E-01  6.679928719225E-01  6.760087863856E-01  6.841208918222E-01
  6.923303425241E-01  7.006383066344E-01  7.090459663140E-01  7.175545179098E-01
  7.261651721247E-01  7.348791541902E-01  7.436977040405E-01  7.526220764889E-01
  7.616535414068E-01  7.707933839037E-01  7.800429045105E-01  7.894034193647E-01
  7.988762603970E-01  8.084627755218E-01  8.181643288281E-01  8.279823007740E-01
  8.379180883833E-01  8.479731054439E-01  8.581487827092E-01  8.684465681017E-01
  8.788679269189E-01  8.894143420420E-01  9.000873141465E-01  9.108883619162E-01
  9.218190222592E-01  9.328808505263E-01  9.440754207327E-01  9.554043257814E-01
  9.668691776908E-01  9.784716078231E-01  9.902132671170E-01  1.002095826322E+00
  1.014120976238E+00  1.026290427953E+00  1.038605913089E+00  1.051069184046E+00
  1.063682014254E+00  1.076446198425E+00  1.089363552806E+00  1.102435915440E+00
  1.115665146425E+00  1.129053128182E+00  1.142601765721E+00  1.156312986909E+00
  1.170188742752E+00  1.184231007665E+00  1.198441779757E+00  1.212823081114E+00
  1.227376958088E+00  1.242105481585E+00  1.257010747364E+00  1.272094876332E+00
  1.287360014848E+00  1.302808335026E+00  1.318442035046E+00  1.334263339467E+00
  1.350274499541E+00  1.366477793535E+00  1.382875527058E+00  1.399470033382E+00
  1.416263673783E+00  1.433258837868E+00  1.450457943923E+00  1.467863439250E+00
  1.485477800521E+00  1.503303534127E+00  1.521343176537E+00  1.539599294655E+00
  1.558074486191E+00  1.576771380025E+00  1.595692636585E+00  1.614840948224E+00
  1.634219039603E+00  1.653829668078E+00  1.673675624095E+00  1.693759731584E+00
  1.714084848363E+00  1.734653866544E+00  1.755469712942E+00  1.776535349498E+00
  1.797853773692E+00  1.819428018976E+00  1.841261155204E+00  1.863356289066E+00
  1.885716564535E+00  1.908345163309E+00  1.931245305269E+00  1.954420248932E+00
  1.977873291919E+00  2.001607771422E+00  2.025627064680E+00  2.049934589456E+00
  2.074533804529E+00  2.099428210183E+00  2.124621348706E+00  2.150116804890E+00
  2.175918206549E+00  2.202029225027E+00  2.228453575728E+00  2.255195018636E+00
  2.282257358860E+00  2.309644447166E+00  2.337360180532E+00  2.365408502699E+00
  2.393793404731E+00  2.422518925588E+00  2.451589152695E+00  2.481008222527E+00
  2.510780321198E+00  2.540909685052E+00  2.571400601273E+00  2.602257408488E+00
  2.633484497390E+00  2.665086311359E+00  2.697067347095E+00  2.729432155260E+00
  2.762185341123E+00  2.795331565217E+00  2.828875543999E+00  2.862822050527E+00
  2.897175915133E+00  2.931942026115E+00  2.967125330428E+00  3.002730834394E+00
  3.038763604406E+00  3.075228767659E+00  3.112131512871E+00  3.149477091026E+00
  3.187270816118E+00  3.225518065911E+00  3.264224282702E+00  3.303394974095E+00
  3.343035713784E+00  3.383152142349E+00  3.423749968057E+00  3.464834967674E+00
  3.506412987286E+00  3.548489943134E+00  3.591071822451E+00  3.634164684321E+00
  3.677774660532E+00  3.721907956459E+00  3.766570851936E+00  3.811769702160E+00
  3.857510938585E+00  3.903801069848E+00  3.950646682687E+00  3.998054442879E+00
  4.046031096193E+00  4.094583469348E+00  4.143718470980E+00  4.193443092632E+00
  4.243764409743E+00  4.294689582660E+00  4.346225857652E+00  4.398380567944E+00
  4.451161134759E+00  4.504575068376E+00  4.558629969197E+00  4.613333528827E+00
  4.668693531173E+00  4.724717853547E+00  4.781414467790E+00  4.838791441403E+00
  4.896856938700E+00  4.955619221965E+00  5.015086652628E+00  5.075267692460E+00
  5.136170904769E+00  5.197804955626E+00  5.260178615094E+00  5.323300758475E+00
  5.387180367577E+00  5.451826531988E+00  5.517248450372E+00  5.583455431776E+00
  5.650456896957E+00  5.718262379721E+00  5.786881528277E+00  5.856324106617E+00
  5.926599995896E+00  5.997719195847E+00  6.069691826197E+00  6.142528128111E+00
  6.216238465649E+00  6.290833327237E+00  6.366323327163E+00  6.442719207089E+00
  6.520031837574E+00  6.598272219625E+00  6.677451486261E+00  6.757580904096E+00
  6.838671874945E+00  6.920735937445E+00  7.003784768694E+00  7.087830185918E+00
  7.172884148149E+00  7.258958757927E+00  7.346066263022E+00  7.434219058178E+00
  7.523429686877E+00  7.613710843119E+00  7.705075373236E+00  7.797536277715E+00
  7.891106713048E+00  7.985799993604E+00  8.081629593528E+00  8.178609148650E+00
  8.276752458434E+00  8.376073487935E+00  8.476586369790E+00  8.578305406228E+00
  8.681245071102E+00  8.785420011956E+00  8.890845052099E+00  8.997535192724E+00
  9.105505615037E+00  9.214771682418E+00  9.325348942607E+00  9.437253129918E+00
  9.550500167477E+00  9.665106169487E+00  9.781087443520E+00  9.898460492843E+00
  1.001724201876E+01  1.013744892298E+01  1.025909831006E+01  1.038220748978E+01
  1.050679397966E+01  1.063287550741E+01  1.076047001350E+01  1.088959565366E+01
  1.102027080151E+01  1.115251405112E+01  1.128634421974E+01  1.142178035037E+01
  1.155884171458E+01  1.169754781515E+01  1.183791838894E+01  1.197997340960E+01
  1.212373309052E+01  1.226921788760E+01  1.241644850226E+01  1.256544588428E+01
  1.271623123489E+01  1.286882600971E+01  1.302325192183E+01  1.317953094489E+01
  1.333768531623E+01  1.349773754003E+01  1.365971039051E+01  1.382362691519E+01
  1.398951043817E+01  1.415738456343E+01  1.432727317819E+01  1.449920045633E+01
  1.467319086181E+01  1.484926915215E+01  1.502746038197E+01  1.520778990656E+01
  1.539028338544E+01  1.557496678606E+01  1.576186638750E+01  1.595100878415E+01
  1.614242088956E+01  1.633612994023E+01  1.653216349951E+01  1.673054946151E+01
  1.693131605504E+01  1.713449184771E+01  1.734010574988E+01  1.754818701888E+01
  1.775876526310E+01  1.797187044626E+01  1.818753289162E+01  1.840578328631E+01
  1.862665268575E+01  1.885017251798E+01  1.907637458820E+01  1.930529108325E+01
  1.953695457625E+01  1.977139803117E+01  2.000865480754E+01  2.024875866523E+01
  2.049174376921E+01  2.073764469445E+01  2.098649643078E+01  2.123833438795E+01
  2.149319440060E+01  2.175111273341E+01  2.201212608621E+01  2.227627159925E+01
  2.254358685844E+01  2.281410990074E+01  2.308787921955E+01  2.336493377018E+01
  2.364531297542E+01  2.392905673113E+01  2.421620541190E+01  2.450679987685E+01
  2.480088147537E+01  2.509849205307E+01  2.539967395771E+01  2.570447004520E+01
  2.601292368574E+01  2.632507876997E+01  2.664097971521E+01  2.696067147179E+01
  2.728419952946E+01  2.761160992381E+01  2.794294924290E+01  2.827826463381E+01
  2.861760380942E+01  2.896101505513E+01  2.930854723579E+01  2.966024980262E+01
  3.001617280025E+01  3.037636687385E+01  3.074088327634E+01  3.110977387566E+01
  3.148309116216E+01  3.186088825611E+01  3.224321891518E+01  3.263013754217E+01
  3.302169919267E+01  3.341795958298E+01  3.381897509798E+01  3.422480279916E+01
  3.463550043275E+01  3.505112643794E+01  3.547173995519E+01  3.589740083466E+01
  3.632816964467E+01  3.676410768041E+01  3.720527697257E+01  3.765174029624E+01
  3.810356117980E+01  3.856080391396E+01  3.902353356092E+01  3.949181596366E+01
  3.996571775522E+01  4.044530636828E+01  4.093065004470E+01  4.142181784524E+01
  4.191887965938E+01  4.242190621529E+01  4.293096908988E+01  4.344614071895E+01
  4.396749440758E+01
</grid-data>
</grid>
<valence-charge total-charge="16" is-unscreening-charge="yes"
 rescaled-to-z-pseudo="no">
<radfunc>
<data npts="457">
  6.704634908689E-03  6.731778184520E-03  6.820822885315E-03  6.995737852614E-03
  7.312016409189E-03  7.818431596679E-03  8.630774692057E-03  9.790336760297E-03
  1.138601528877E-02  1.363617323143E-02  1.667374032160E-02  2.057609119216E-02
  2.612459420401E-02  3.288821045733E-02  4.062915860036E-02  5.075952154837E-02
  6.402718945114E-02  7.817871032550E-02  9.590794628286E-02  1.181190015940E-01
  1.459394495986E-01  1.731669150015E-01  2.057478670336E-01  2.447173247084E-01
  2.913019339777E-01  3.469524021847E-01  4.133803832103E-01  4.714731132173E-01
  5.377302502533E-01  6.132502983014E-01  6.992668282324E-01  7.971619702959E-01
  9.084804733609E-01  1.034944127147E+00  1.178466263496E+00  1.341165954466E+00
  1.525381406066E+00  1.733681904369E+00  1.887307036550E+00  2.053773951349E+00
  2.234025447126E+00  2.429053530911E+00  2.639898760959E+00  2.867648914414E+00
  3.113436863001E+00  3.378437527674E+00  3.663863770967E+00  3.970961073691E+00
  4.301000830973E+00  4.655272091858E+00  5.035071557263E+00  5.441691643722E+00
  5.876406415756E+00  6.340455188759E+00  6.835023608131E+00  7.361222020032E+00
  7.920060966086E+00  8.512423660026E+00  9.139035340241E+00  9.800429440285E+00
  1.049691058135E+01  1.122851446835E+01  1.199496486643E+01  1.279562794885E+01
  1.362946444190E+01  1.449498014856E+01  1.539017560982E+01  1.584812787523E+01
  1.631249586175E+01  1.678286536243E+01  1.725878146382E+01  1.773974718674E+01
  1.822522220855E+01  1.871462168216E+01  1.920731516832E+01  1.970262569833E+01
  2.019982898556E+01  2.069815280473E+01  2.119677655892E+01  2.169483105487E+01
  2.219139850778E+01  2.268551279734E+01  2.317615999699E+01  2.366227919855E+01
  2.414276365468E+01  2.461646226076E+01  2.508218139810E+01  2.553868715887E+01
  2.598470797284E+01  2.641893765393E+01  2.684003888365E+01  2.724664714571E+01
  2.763737512407E+01  2.801081757376E+01  2.836555667020E+01  2.870016783944E+01
  2.901322606699E+01  2.930331267868E+01  2.956902258150E+01  2.980897194701E+01
  3.002180631354E+01  3.020620907735E+01  3.036091033565E+01  3.048469603760E+01
  3.057641739157E+01  3.063500046968E+01  3.065945594261E+01  3.064888887008E+01
  3.060250846444E+01  3.051963773785E+01  3.039972293587E+01  3.024234265405E+01
  3.004721652826E+01  2.981421338408E+01  2.954335872703E+01  2.923484145224E+01
  2.888901965104E+01  2.850642539201E+01  2.808776835623E+01  2.763393821016E+01
  2.714600560595E+01  2.662522170710E+01  2.607301614818E+01  2.549099335031E+01
  2.488092712984E+01  2.424475355542E+01  2.358456202924E+01  2.290258459057E+01
  2.220118346470E+01  2.148283690635E+01  2.075012341485E+01  2.000570442704E+01
  1.925230562333E+01  1.849269701175E+01  1.772967198372E+01  1.696602556262E+01
  1.620453209205E+01  1.544792263323E+01  1.469886236061E+01  1.395992825982E+01
  1.323358744231E+01  1.252217639600E+01  1.182788148964E+01  1.115272104083E+01
  1.049852924284E+01  9.866942223657E+00  9.259386481656E+00  8.677069907305E+00
  8.120975558060E+00  7.591858306608E+00  7.090244430512E+00  6.616434155770E+00
  6.170507109088E+00  5.752330575128E+00  5.361570397413E+00  4.997704306472E+00
  4.660037407987E+00  4.347719518789E+00  4.059764001050E+00  3.795067716237E+00
  3.552431701541E+00  3.330582163166E+00  3.128191383555E+00  2.943898153326E+00
  2.776327362911E+00  2.624108422795E+00  2.485892223633E+00  2.360366396704E+00
  2.246268689347E+00  2.142398327117E+00  2.047625292268E+00  1.960897504688E+00
  1.881245944644E+00  1.807787804838E+00  1.739727236620E+00  1.676352033260E+00
  1.617027437580E+00  1.561192218432E+00  1.508355441052E+00  1.458091441493E+00
  1.410034802936E+00  1.363875022188E+00  1.319351104786E+00  1.276246219005E+00
  1.234382519049E+00  1.193616222240E+00  1.153833001550E+00  1.114943734258E+00
  1.076880630093E+00  1.039593748193E+00  1.003048012427E+00  9.672210547022E-01
  9.321016183161E-01  8.976875218534E-01  8.639832096423E-01  8.309964995180E-01
  7.987352873926E-01  7.672069482601E-01  7.364185876666E-01  7.063766833220E-01
  6.770869853905E-01  6.485544008041E-01  6.207828996297E-01  5.937754391158E-01
  5.675339042687E-01  5.420590638386E-01  5.173505405876E-01  4.934067947282E-01
  4.702251193505E-01  4.478016468719E-01  4.261313653050E-01  4.052081433563E-01
  3.850247633308E-01  3.655729608762E-01  3.468434705758E-01  3.288260766077E-01
  3.115096675136E-01  2.948822943392E-01  2.789312313880E-01  2.636430388967E-01
  2.490036269893E-01  2.349983203213E-01  2.216119228769E-01  2.088287824323E-01
  1.966328542502E-01  1.850077636160E-01  1.739368668770E-01  1.634033106879E-01
  1.533900892058E-01  1.438800990249E-01  1.348561916727E-01  1.263012235261E-01
  1.181981030371E-01  1.105298351881E-01  1.032795631202E-01  9.643060690537E-02
  8.996649945115E-02  8.387101954521E-02  7.812822206525E-02  7.272246539135E-02
  6.763843607129E-02  6.286117079940E-02  5.837607577849E-02  5.416894354212E-02
  5.022596732128E-02  4.653375304526E-02  4.307932907166E-02  3.985015374502E-02
  3.683412088736E-02  3.401956332762E-02  3.139525457975E-02  2.895040878198E-02
  2.667467901164E-02  2.455815409154E-02  2.259135400495E-02  2.076522403641E-02
  1.907112775558E-02  1.750083896038E-02  1.604653269397E-02  1.470077544823E-02
  1.345651466317E-02  1.230706762877E-02  1.124610989114E-02  1.026766326088E-02
  9.366083516294E-03  8.536047888788E-03  7.772542412178E-03  7.070849211734E-03
  6.426533802691E-03  5.835432461863E-03  5.293639729794E-03  4.797496094785E-03
  4.343575904067E-03  3.928675541566E-03  3.549801905956E-03  3.204161217314E-03
  2.889148175451E-03  2.602335488188E-03  2.341463783217E-03  2.104431913061E-03
  1.889287658754E-03  1.694218834405E-03  1.517544791729E-03  1.357708320901E-03
  1.213267941731E-03  1.082890577211E-03  9.653445998243E-04  8.594932397094E-04
  7.642883427840E-04  6.787644662162E-04  6.020332981608E-04  5.332783884454E-04
  4.717501768332E-04  4.167613055981E-04  3.676822033823E-04  3.239369276373E-04
  2.849992533564E-04  2.503889962607E-04  2.196685590794E-04  1.924396900618E-04
  1.683404433441E-04  1.470423312697E-04  1.282476592148E-04  1.116870338978E-04
  9.711703654429E-05  8.431805264922E-05  7.309225040851E-05  6.326170020464E-05
  5.466662781118E-05  4.716379424174E-05  4.062499541273E-05  3.493567501794E-05
  2.999364422657E-05  2.570790202764E-05  2.199755024653E-05  1.879079745871E-05
  1.602404622556E-05  1.364105827647E-05  1.159219246228E-05  9.833710507994E-06
  8.327145797393E-06  7.038730629665E-06  5.938877596509E-06  5.001710938491E-06
  4.204643949741E-06  3.527998710248E-06  2.954664633865E-06  2.469792526832E-06
  2.060521055201E-06  1.715732719169E-06  1.425836627037E-06  1.182575550727E-06
  9.788549275953E-07  8.085916493110E-07  6.665806471355E-07  5.483774437987E-07
  4.501949949133E-07  3.688132873677E-07  3.015002982471E-07  2.459430455342E-07
  2.001875811861E-07  1.625868882899E-07  1.317557470469E-07  1.065317295538E-07
  8.594157101872E-08  6.917224547651E-08  5.554614759339E-08  4.449984913422E-08
  3.556595948110E-08  2.835767462015E-08  2.255564864029E-08  1.789686639484E-08
  1.416523594111E-08  1.118365506207E-08  8.807337941582E-09  6.918216252227E-09
  5.420253844693E-09  4.235536208334E-09  3.301015189951E-09  2.565806382471E-09
  1.988951376163E-09  1.537569933518E-09  1.185338317254E-09  9.112396631412E-10
  6.985406224812E-10  5.339556631900E-10  4.069665581618E-10  3.092698347681E-10
  2.343294260538E-10  1.770155558838E-10  1.333140986616E-10  1.000933603032E-10
  7.491750217645E-11  5.589773613798E-11  4.157401112282E-11  3.082123733524E-11
  2.277519397622E-11  1.677417600768E-11  1.231318509884E-11  9.008085649811E-12
  6.567650826997E-12  4.771834720758E-12  3.454940989862E-12  2.492629128053E-12
  1.791918055913E-12  1.283522540666E-12  9.159988365187E-13  6.512884396481E-13
  4.613383549372E-13  3.255472131832E-13  2.288425961163E-13  1.602389937615E-13
  1.117603514880E-13  7.763812069425E-14  5.371668735063E-14  3.701428599076E-14
  2.540002899565E-14  1.735730152820E-14  1.181113349387E-14  8.002768716315E-15
  5.398908509667E-15  3.626319678966E-15  2.424921913843E-15  1.614276185190E-15
  1.069751505567E-15  7.056498360773E-16  4.633112534315E-16  3.027676082914E-16
  1.969129635445E-16  1.274508091110E-16  8.208975908223E-17  5.261236044872E-17
  3.355157467421E-17  2.128814180407E-17  1.343801203186E-17  8.438724009592E-18
  5.271498768195E-18  2.777634154040E-18  0.000000000000E+00  0.000000000000E+00
  0.000000000000E+00  0.000000000000E+00  0.000000000000E+00  0.000000000000E+00
  0.000000000000E+00  0.000000000000E+00  0.000000000000E+00  0.000000000000E+00
  0.000000000000E+00  0.000000000000E+00  0.000000000000E+00  0.000000000000E+00
  0.000000000000E+00  0.000000000000E+00  0.000000000000E+00  0.000000000000E+00
  0.000000000000E+00  0.000000000000E+00  0.000000000000E+00  0.000000000000E+00
  0.000000000000E+00  0.000000000000E+00  0.000000000000E+00  0.000000000000E+00
  0.000000000000E+00  0.000000000000E+00  0.000000000000E+00  0.000000000000E+00
  0.000000000000E+00  0.000000000000E+00  0.000000000000E+00  0.000000000000E+00
  0.000000000000E+00  0.000000000000E+00  0.000000000000E+00  0.000000000000E+00
  0.000000000000E+00
</data>
</radfunc>
</valence-charge>
<pseudocore-charge matching-radius="0.644510935795"
 number-of-continuous-derivatives="4">
<annotation model-charge-form="Teter function with specified parameters" />
<radfunc>
<data npts="291">
  1.531195540985E+02  1.531045768478E+02  1.530598076516E+02  1.529851267282E+02
  1.528755665401E+02  1.527358104123E+02  1.525577555914E+02  1.523539534628E+02
  1.521249094659E+02  1.518579545768E+02  1.515572400365E+02  1.512306116529E+02
  1.508361793610E+02  1.504246060179E+02  1.500138331714E+02  1.495411498528E+02
  1.489974561849E+02  1.484827004215E+02  1.479047243456E+02  1.472560472819E+02
  1.465283795934E+02  1.458832442560E+02  1.451765836393E+02  1.444028673829E+02
  1.435561387148E+02  1.426299968600E+02  1.416175824299E+02  1.407972644947E+02
  1.399210389553E+02  1.389854891034E+02  1.379870499863E+02  1.369220119265E+02
  1.357865261570E+02  1.345766129297E+02  1.332881724946E+02  1.319169993875E+02
  1.304588005078E+02  1.289092175046E+02  1.278232227923E+02  1.266933536597E+02
  1.255183084677E+02  1.242967949161E+02  1.230275361852E+02  1.217092777249E+02
  1.203407947276E+02  1.189209003244E+02  1.174484545353E+02  1.159223740106E+02
  1.143416425880E+02  1.127053226938E+02  1.110125676050E+02  1.092626345848E+02
  1.074548988962E+02  1.055888686855E+02  1.036642007192E+02  1.016807169389E+02
  9.963842178832E+01  9.753752024255E+01  9.537843645132E+01  9.316183288399E+01
  9.088862983630E+01  8.856002513026E+01  8.617751380622E+01  8.374290757126E+01
  8.125835373073E+01  7.872635329047E+01  7.614977787601E+01  7.484577709221E+01
  7.353188507287E+01  7.220857150975E+01  7.087633174998E+01  6.953568706801E+01
  6.818718488618E+01  6.683139893956E+01  6.546892938074E+01  6.410040281948E+01
  6.272647229292E+01  6.134781716132E+01  5.996514292454E+01  5.857918095436E+01
  5.719068813772E+01  5.580044642608E+01  5.440926228603E+01  5.301796604644E+01
  5.162741113761E+01  5.023847321789E+01  4.885204918372E+01  4.746905605902E+01
  4.609042976034E+01  4.471712373457E+01  4.335010746626E+01  4.199036485232E+01
  4.063889244220E+01  3.929669754245E+01  3.796479618508E+01  3.664421095997E+01
  3.533596871242E+01  3.404109810776E+01  3.276062706589E+01  3.149558006979E+01
  3.024697535287E+01  2.901582197146E+01  2.780311676981E+01  2.660984124625E+01
  2.543695833060E+01  2.428540908411E+01  2.315610933484E+01  2.204994626255E+01
  2.096777494892E+01  1.991041491005E+01  1.887864662997E+01  1.787320811482E+01
  1.689479148923E+01  1.594403965729E+01  1.502154305186E+01  1.412783649711E+01
  1.326339620992E+01  1.242863696665E+01  1.162390946244E+01  1.084949789045E+01
  1.010561776851E+01  9.392414040835E+00  8.709959481514E+00  8.058253426267E+00
  7.437220857401E+00  6.846711865744E+00  6.286501511334E+00  5.756290102481E+00
  5.255703910120E+00  4.784296331369E+00  4.341549512730E+00  3.926876439514E+00
  3.539623493840E+00  3.179073478964E+00  2.844449102752E+00  2.534916907947E+00
  2.249591631389E+00  1.987540968781E+00  1.747790715867E+00  1.529330251166E+00
  1.331118319757E+00  1.152089072119E+00  9.911583068505E-01  8.472298612401E-01
  7.192020894010E-01  6.059743639586E-01  5.064535343685E-01  4.195602728460E-01
  3.442352377821E-01  2.794449844615E-01  2.241875540028E-01  1.774976737517E-01
  1.384515059370E-01  1.061708862622E-01  7.982700025008E-02  5.864345253670E-02
  4.189869286983E-02  2.892777217990E-02  1.912341262921E-02  1.193638681957E-02
  6.875213137631E-03  3.505186293047E-03  1.446774180098E-03  3.734239717278E-04
  8.831520815549E-06  1.237383769635E-04  5.323297103310E-04  1.088313863962E-03
  1.680769855529E-03  2.229852679876E-03  2.682447537282E-03  3.007863003385E-03
  3.193649612387E-03  3.241624373852E-03  3.164173500736E-03  2.980895297903E-03
  2.715633041146E-03  2.393934145410E-03  2.040957430942E-03  1.679835361075E-03
  1.330483300780E-03  1.008833705761E-03  7.264602659295E-04  4.905459285921E-04
  3.041398863783E-04  1.666424125761E-04  7.445312547521E-05  2.171798924823E-05
  1.113085447840E-06  4.608730791427E-06  2.416553137966E-05  5.232396455218E-05
  8.266045973776E-05  1.100950129841E-04  1.310473732722E-04  1.434500395908E-04
  1.466360148281E-04  1.411268866256E-04  1.283519055814E-04  1.103310527116E-04
  8.935458713577E-05  6.768841806761E-05  4.732924017441E-05  2.982627933074E-05
  1.617842513592E-05  6.807261805153E-06  1.598839222658E-06  6.689968409452E-10
  1.155960976618E-06  4.054904662322E-06  7.682972500129E-06  1.114864136003E-05
  1.377720815581E-05  1.516292166708E-05  1.517773247246E-05  1.394079360378E-05
  1.175769141580E-05  9.041658682784E-06  6.230353731530E-06  3.711090354207E-06
  1.764873933206E-06  5.357035611215E-07  2.699708403009E-08  0.000000000000E+00
  0.000000000000E+00  0.000000000000E+00  0.000000000000E+00  0.000000000000E+00
  0.000000000000E+00  0.000000000000E+00  0.000000000000E+00  0.000000000000E+00
  0.000000000000E+00  0.000000000000E+00  0.000000000000E+00  0.000000000000E+00
  0.000000000000E+00  0.000000000000E+00  0.000000000000E+00  0.000000000000E+00
  0.000000000000E+00  0.000000000000E+00  0.000000000000E+00  0.000000000000E+00
  0.000000000000E+00  0.000000000000E+00  0.000000000000E+00  0.000000000000E+00
  0.000000000000E+00  0.000000000000E+00  0.000000000000E+00  0.000000000000E+00
  0.000000000000E+00  0.000000000000E+00  0.000000000000E+00  0.000000000000E+00
  0.000000000000E+00  0.000000000000E+00  0.000000000000E+00  0.000000000000E+00
  0.000000000000E+00  0.000000000000E+00  0.000000000000E+00  0.000000000000E+00
  0.000000000000E+00  0.000000000000E+00  0.000000000000E+00  0.000000000000E+00
  0.000000000000E+00  0.000000000000E+00  0.000000000000E+00  0.000000000000E+00
  0.000000000000E+00  0.000000000000E+00  0.000000000000E+00  0.000000000000E+00
  0.000000000000E+00  0.000000000000E+00  0.000000000000E+00  0.000000000000E+00
  0.000000000000E+00  0.000000000000E+00  0.000000000000E+00  0.000000000000E+00
  0.000000000000E+00  0.000000000000E+00  0.000000000000E+00  0.000000000000E+00
  0.000000000000E+00  0.000000000000E+00  0.000000000000E+00
</data>
</radfunc>
</pseudocore-charge>
<semilocal-potentials set="scalar_relativistic">
<slps n="4" l="s" rc="1.81942801898">
<radfunc>
<data npts="291">
  4.292030012975E+01  4.289010255968E+01  4.279999706324E+01  4.265021989198E+01
  4.243168283826E+01  4.215495355662E+01  4.180565904817E+01  4.141028309621E+01
  4.097147810203E+01  4.046729261556E+01  3.990847989553E+01  3.931219652534E+01
  3.860653699638E+01  3.788648452782E+01  3.718385017385E+01  3.639442367251E+01
  3.551072362468E+01  3.469707062138E+01  3.380903123816E+01  3.284311414951E+01
  3.179638728646E+01  3.089931135943E+01  2.994836466658E+01  2.894324926535E+01
  2.788414733835E+01  2.677177160412E+01  2.560740884688E+01  2.470113664467E+01
  2.376770621033E+01  2.280835117046E+01  2.182450678756E+01  2.081780647928E+01
  1.979007517866E+01  1.874331947857E+01  1.767971459469E+01  1.660158827955E+01
  1.551140192074E+01  1.441172915477E+01  1.367465562802E+01  1.293535359792E+01
  1.219463795595E+01  1.145332933135E+01  1.071225060996E+01  9.972223476354E+00
  9.234065017450E+00  8.498584424369E+00  7.766579828689E+00  7.038835307051E+00
  6.316118085785E+00  5.599175974286E+00  4.888735052458E+00  4.185497633756E+00
  3.490140521225E+00  2.803313569599E+00  2.125638561954E+00  1.457708404815E+00
  8.000866410310E-01  1.533072751820E-01 -4.821250980369E-01 -1.105734876103E+00
 -1.717074759071E+00 -2.315724808899E+00 -2.901291281549E+00 -3.473405258186E+00
 -4.031721104059E+00 -4.575914785383E+00 -5.105682076180E+00 -5.365065711613E+00
 -5.620736688654E+00 -5.872661710563E+00 -6.120808362383E+00 -6.365145051657E+00
 -6.605640949966E+00 -6.842265936078E+00 -7.074990540038E+00 -7.303785890238E+00
 -7.528623662193E+00 -7.749476030722E+00 -7.966315625423E+00 -8.179115490195E+00
 -8.387849047338E+00 -8.592490066862E+00 -8.793012641660E+00 -8.989391169291E+00
 -9.181600341082E+00 -9.369615139383E+00 -9.553410843783E+00 -9.732963047155E+00
 -9.908247682413E+00 -1.007924106086E+01 -1.024591992299E+01 -1.040826150264E+01
 -1.056624360519E+01 -1.071984470064E+01 -1.086904403198E+01 -1.101382173952E+01
 -1.115415900118E+01 -1.129003818888E+01 -1.142144304075E+01 -1.154835884847E+01
 -1.167077265891E+01 -1.178867348860E+01 -1.190205254940E+01 -1.201090348305E+01
 -1.211522260229E+01 -1.221500913534E+01 -1.231026547072E+01 -1.240099739879E+01
 -1.248721434641E+01 -1.256892960088E+01 -1.264616051960E+01 -1.271892872178E+01
 -1.278726025885E+01 -1.285118576053E+01 -1.291074055390E+01 -1.296596475283E+01
 -1.301690331602E+01 -1.306360607140E+01 -1.310612770529E+01 -1.314452771420E+01
 -1.317887031716E+01 -1.320922432575E+01 -1.323566296830E+01 -1.325826366380E+01
 -1.327710773991E+01 -1.329228008841E+01 -1.330386874986E+01 -1.331196441858E+01
 -1.331665985780E+01 -1.331804921494E+01 -1.331622722685E+01 -1.331128830695E+01
 -1.330332550844E+01 -1.329242936335E+01 -1.327868660389E+01 -1.326217878293E+01
 -1.324298082404E+01 -1.322115954787E+01 -1.319677224168E+01 -1.316986536031E+01
 -1.314047346834E+01 -1.310861855144E+01 -1.307430983573E+01 -1.303754425226E+01
 -1.299830766512E+01 -1.295657694181E+01 -1.291232288246E+01 -1.286551394235E+01
 -1.281612058601E+01 -1.276412001088E+01 -1.270950088365E+01 -1.265226765285E+01
 -1.259244393860E+01 -1.253007445186E+01 -1.246522485273E+01 -1.239797891684E+01