<?xml version="1.0" encoding="UTF-8" ?>
<psml version="1.1" energy_unit="hartree" length_unit="bohr"
 uuid="34f51e70-516b-11e8-47e6-e4b9dbb80839"
 xmlns="http://esl.cecam.org/PSML/ns/1.1">
<provenance creator="ONCVPSP-3.3.0+psml-3.3.0-73 (fully-relativistic)"
 date="2018-05-06">
<annotation action="semilocal-pseudopotential-generation"
 action-cont="projectors-generation" />
<input-file name="oncvpsp-input">
<![CDATA[# atsym z nc nv iexc psfile
Se 34 3 5 4 both
# n l f
1 0 2.0
2 0 2.0
2 1 6.0
3 0 2.0
3 1 6.0
3 2 10.0
4 0 2.0
4 1 4.0
# lmax
2
# l rc ep ncon nbas qcut
0 1.2 0.0 4 7 9.6
1 1.4 0.0 4 7 10.0
2 1.6 0.0 4 7 10.0
# lloc lpopt rc5 dvloc0
4 5 1.2 0.0
# l nproj debl
0 2 1.0
1 2 1.0
2 2 3.5
# icmod fcfact rcfact
3 2.6 1.5
# epsh1 epsh2 depsh
-12.0 12.0 0.02
# rlmax drl
6.0 0.01
 0
]]>
</input-file>
</provenance>
<pseudo-atom-spec atomic-label="Se" atomic-number="34" z-pseudo="24"
 flavor="Hamann&apos;s oncvpsp" relativity="dirac" spin-dft="no"
 core-corrections="yes">
<annotation pseudo-energy="-335.597637620" />
<exchange-correlation>
<annotation oncvpsp-xc-code="4" oncvpsp-xc-type="GGA -- Perdew-Burke-Ernzerhof" />
<libxc-info number-of-functionals="2">
<functional name="Perdew, Burke &amp; Ernzerhof (GGA)" type="exchange" id="101" />
<functional name="Perdew, Burke &amp; Ernzerhof (GGA)" type="correlation"
 id="130" />
</libxc-info>
</exchange-correlation>
<valence-configuration total-valence-charge="24">
<shell n="3" l="s" occupation="2" />
<shell n="3" l="p" occupation="6" />
<shell n="3" l="d" occupation="10" />
<shell n="4" l="s" occupation="2" />
<shell n="4" l="p" occupation="4" />
</valence-configuration>
</pseudo-atom-spec>
<grid npts="457">
<annotation type="sampled from oncvpsp log grid"
 recipe="r(i:1..N) = r1*exp(a*(i-1)) + r=0; resampled"
 recipe-cont="r1: scale; a: step" scale="0.147058823529E-04"
 step="0.119285708653E-01" delta="0.500000000000E-02" rmax="43.9674944076" />
<grid-data>
  0.000000000000E+00  5.020670286226E-03  1.002839488868E-02  1.504419146530E-02
  2.027130297145E-02  2.542795312469E-02  3.077510917124E-02  3.593736782770E-02
  4.097622089294E-02  4.616757116937E-02  5.139982494270E-02  5.654650141804E-02
  6.220851581082E-02  6.762595753660E-02  7.264345683615E-02  7.803322885668E-02
  8.382289432527E-02  8.897443012385E-02  9.444256583582E-02  1.002467588636E-01
  1.064076624107E-01  1.116079041230E-01  1.170622864982E-01  1.227832296276E-01
  1.287837605838E-01  1.350775430848E-01  1.416789086070E-01  1.468407994265E-01
  1.521907571722E-01  1.577356338231E-01  1.634825310017E-01  1.694388090690E-01
  1.756120965512E-01  1.820102999105E-01  1.886416136706E-01  1.955145309126E-01
  2.026378541519E-01  2.100207066126E-01  2.150914465530E-01  2.202846144386E-01
  2.256031661696E-01  2.310501290136E-01  2.366286033285E-01  2.423417643273E-01
  2.481928638852E-01  2.541852323908E-01  2.603222806417E-01  2.666075017855E-01
  2.730444733086E-01  2.796368590722E-01  2.863884113976E-01  2.933029732024E-01
  3.003844801874E-01  3.076369630770E-01  3.150645499135E-01  3.226714684067E-01
  3.304620483399E-01  3.384407240350E-01  3.466120368761E-01  3.549806378944E-01
  3.635512904158E-01  3.723288727715E-01  3.813183810757E-01  3.905249320684E-01
  3.999537660283E-01  4.096102497553E-01  4.194998796254E-01  4.245338781809E-01
  4.296282847191E-01  4.347838241357E-01  4.400012300253E-01  4.452812447856E-01
  4.506246197230E-01  4.560321151597E-01  4.615045005416E-01  4.670425545481E-01
  4.726470652027E-01  4.783188299851E-01  4.840586559450E-01  4.898673598163E-01
  4.957457681341E-01  5.016947173517E-01  5.077150539599E-01  5.138076346074E-01
  5.199733262227E-01  5.262130061374E-01  5.325275622111E-01  5.389178929576E-01
  5.453849076731E-01  5.519295265652E-01  5.585526808839E-01  5.652553130546E-01
  5.720383768112E-01  5.789028373329E-01  5.858496713809E-01  5.928798674375E-01
  5.999944258468E-01  6.071943589569E-01  6.144806912644E-01  6.218544595596E-01
  6.293167130743E-01  6.368685136312E-01  6.445109357948E-01  6.522450670243E-01
  6.600720078286E-01  6.679928719225E-01  6.760087863856E-01  6.841208918222E-01
  6.923303425241E-01  7.006383066344E-01  7.090459663140E-01  7.175545179098E-01
  7.261651721247E-01  7.348791541902E-01  7.436977040405E-01  7.526220764889E-01
  7.616535414068E-01  7.707933839037E-01  7.800429045105E-01  7.894034193647E-01
  7.988762603970E-01  8.084627755218E-01  8.181643288281E-01  8.279823007740E-01
  8.379180883833E-01  8.479731054439E-01  8.581487827092E-01  8.684465681017E-01
  8.788679269189E-01  8.894143420420E-01  9.000873141465E-01  9.108883619162E-01
  9.218190222592E-01  9.328808505263E-01  9.440754207327E-01  9.554043257814E-01
  9.668691776908E-01  9.784716078231E-01  9.902132671170E-01  1.002095826322E+00
  1.014120976238E+00  1.026290427953E+00  1.038605913089E+00  1.051069184046E+00
  1.063682014254E+00  1.076446198425E+00  1.089363552806E+00  1.102435915440E+00
  1.115665146425E+00  1.129053128182E+00  1.142601765721E+00  1.156312986909E+00
  1.170188742752E+00  1.184231007665E+00  1.198441779757E+00  1.212823081114E+00
  1.227376958088E+00  1.242105481585E+00  1.257010747364E+00  1.272094876332E+00
  1.287360014848E+00  1.302808335026E+00  1.318442035046E+00  1.334263339467E+00
  1.350274499541E+00  1.366477793535E+00  1.382875527058E+00  1.399470033382E+00
  1.416263673783E+00  1.433258837868E+00  1.450457943923E+00  1.467863439250E+00
  1.485477800521E+00  1.503303534127E+00  1.521343176537E+00  1.539599294655E+00
  1.558074486191E+00  1.576771380025E+00  1.595692636585E+00  1.614840948224E+00
  1.634219039603E+00  1.653829668078E+00  1.673675624095E+00  1.693759731584E+00
  1.714084848363E+00  1.734653866544E+00  1.755469712942E+00  1.776535349498E+00
  1.797853773692E+00  1.819428018976E+00  1.841261155204E+00  1.863356289066E+00
  1.885716564535E+00  1.908345163309E+00  1.931245305269E+00  1.954420248932E+00
  1.977873291919E+00  2.001607771422E+00  2.025627064680E+00  2.049934589456E+00
  2.074533804529E+00  2.099428210183E+00  2.124621348706E+00  2.150116804890E+00
  2.175918206549E+00  2.202029225027E+00  2.228453575728E+00  2.255195018636E+00
  2.282257358860E+00  2.309644447166E+00  2.337360180532E+00  2.365408502699E+00
  2.393793404731E+00  2.422518925588E+00  2.451589152695E+00  2.481008222527E+00
  2.510780321198E+00  2.540909685052E+00  2.571400601273E+00  2.602257408488E+00
  2.633484497390E+00  2.665086311359E+00  2.697067347095E+00  2.729432155260E+00
  2.762185341123E+00  2.795331565217E+00  2.828875543999E+00  2.862822050527E+00
  2.897175915133E+00  2.931942026115E+00  2.967125330428E+00  3.002730834394E+00
  3.038763604406E+00  3.075228767659E+00  3.112131512871E+00  3.149477091026E+00
  3.187270816118E+00  3.225518065911E+00  3.264224282702E+00  3.303394974095E+00
  3.343035713784E+00  3.383152142349E+00  3.423749968057E+00  3.464834967674E+00
  3.506412987286E+00  3.548489943134E+00  3.591071822451E+00  3.634164684321E+00
  3.677774660532E+00  3.721907956459E+00  3.766570851936E+00  3.811769702160E+00
  3.857510938585E+00  3.903801069848E+00  3.950646682687E+00  3.998054442879E+00
  4.046031096193E+00  4.094583469348E+00  4.143718470980E+00  4.193443092632E+00
  4.243764409743E+00  4.294689582660E+00  4.346225857652E+00  4.398380567944E+00
  4.451161134759E+00  4.504575068376E+00  4.558629969197E+00  4.613333528827E+00
  4.668693531173E+00  4.724717853547E+00  4.781414467790E+00  4.838791441403E+00
  4.896856938700E+00  4.955619221965E+00  5.015086652628E+00  5.075267692460E+00
  5.136170904769E+00  5.197804955626E+00  5.260178615094E+00  5.323300758475E+00
  5.387180367577E+00  5.451826531988E+00  5.517248450372E+00  5.583455431776E+00
  5.650456896957E+00  5.718262379721E+00  5.786881528277E+00  5.856324106617E+00
  5.926599995896E+00  5.997719195847E+00  6.069691826197E+00  6.142528128111E+00
  6.216238465649E+00  6.290833327237E+00  6.366323327163E+00  6.442719207089E+00
  6.520031837574E+00  6.598272219625E+00  6.677451486261E+00  6.757580904096E+00
  6.838671874945E+00  6.920735937445E+00  7.003784768694E+00  7.087830185918E+00
  7.172884148149E+00  7.258958757927E+00  7.346066263022E+00  7.434219058178E+00
  7.523429686877E+00  7.613710843119E+00  7.705075373236E+00  7.797536277715E+00
  7.891106713048E+00  7.985799993604E+00  8.081629593528E+00  8.178609148650E+00
  8.276752458434E+00  8.376073487935E+00  8.476586369790E+00  8.578305406228E+00
  8.681245071102E+00  8.785420011956E+00  8.890845052099E+00  8.997535192724E+00
  9.105505615037E+00  9.214771682418E+00  9.325348942607E+00  9.437253129918E+00
  9.550500167477E+00  9.665106169487E+00  9.781087443520E+00  9.898460492843E+00
  1.001724201876E+01  1.013744892298E+01  1.025909831006E+01  1.038220748978E+01
  1.050679397966E+01  1.063287550741E+01  1.076047001350E+01  1.088959565366E+01
  1.102027080151E+01  1.115251405112E+01  1.128634421974E+01  1.142178035037E+01
  1.155884171458E+01  1.169754781515E+01  1.183791838894E+01  1.197997340960E+01
  1.212373309052E+01  1.226921788760E+01  1.241644850226E+01  1.256544588428E+01
  1.271623123489E+01  1.286882600971E+01  1.302325192183E+01  1.317953094489E+01
  1.333768531623E+01  1.349773754003E+01  1.365971039051E+01  1.382362691519E+01
  1.398951043817E+01  1.415738456343E+01  1.432727317819E+01  1.449920045633E+01
  1.467319086181E+01  1.484926915215E+01  1.502746038197E+01  1.520778990656E+01
  1.539028338544E+01  1.557496678606E+01  1.576186638750E+01  1.595100878415E+01
  1.614242088956E+01  1.633612994023E+01  1.653216349951E+01  1.673054946151E+01
  1.693131605504E+01  1.713449184771E+01  1.734010574988E+01  1.754818701888E+01
  1.775876526310E+01  1.797187044626E+01  1.818753289162E+01  1.840578328631E+01
  1.862665268575E+01  1.885017251798E+01  1.907637458820E+01  1.930529108325E+01
  1.953695457625E+01  1.977139803117E+01  2.000865480754E+01  2.024875866523E+01
  2.049174376921E+01  2.073764469445E+01  2.098649643078E+01  2.123833438795E+01
  2.149319440060E+01  2.175111273341E+01  2.201212608621E+01  2.227627159925E+01
  2.254358685844E+01  2.281410990074E+01  2.308787921955E+01  2.336493377018E+01
  2.364531297542E+01  2.392905673113E+01  2.421620541190E+01  2.450679987685E+01
  2.480088147537E+01  2.509849205307E+01  2.539967395771E+01  2.570447004520E+01
  2.601292368574E+01  2.632507876997E+01  2.664097971521E+01  2.696067147179E+01
  2.728419952946E+01  2.761160992381E+01  2.794294924290E+01  2.827826463381E+01
  2.861760380942E+01  2.896101505513E+01  2.930854723579E+01  2.966024980262E+01
  3.001617280025E+01  3.037636687385E+01  3.074088327634E+01  3.110977387566E+01
  3.148309116216E+01  3.186088825611E+01  3.224321891518E+01  3.263013754217E+01
  3.302169919267E+01  3.341795958298E+01  3.381897509798E+01  3.422480279916E+01
  3.463550043275E+01  3.505112643794E+01  3.547173995519E+01  3.589740083466E+01
  3.632816964467E+01  3.676410768041E+01  3.720527697257E+01  3.765174029624E+01
  3.810356117980E+01  3.856080391396E+01  3.902353356092E+01  3.949181596366E+01
  3.996571775522E+01  4.044530636828E+01  4.093065004470E+01  4.142181784524E+01
  4.191887965938E+01  4.242190621529E+01  4.293096908988E+01  4.344614071895E+01
  4.396749440758E+01
</grid-data>
</grid>
<valence-charge total-charge="24" is-unscreening-charge="yes"
 rescaled-to-z-pseudo="no">
<radfunc>
<data npts="457">
  4.911698554998E+01  4.913087519953E+01  4.917238602126E+01  4.924160753368E+01
  4.934310418820E+01  4.947248042794E+01  4.963715788561E+01  4.982543721007E+01
  5.003676602135E+01  5.028271170633E+01  5.055929148943E+01  5.085913976685E+01
  5.122044304109E+01  5.159652044424E+01  5.197091548892E+01  5.240055383257E+01
  5.289315561046E+01  5.335796681649E+01  5.387802483500E+01  5.445935820441E+01
  5.510850226630E+01  5.568135504718E+01  5.630593101093E+01  5.698624390608E+01
  5.772647135871E+01  5.853092372794E+01  5.940400074215E+01  6.010650964772E+01
  6.085196965903E+01  6.164220072586E+01  6.247895897148E+01  6.336390433542E+01
  6.429856234139E+01  6.528427922169E+01  6.632216957191E+01  6.741305566135E+01
  6.855739748925E+01  6.975521266230E+01  7.058323370022E+01  7.143449891388E+01
  7.230856230122E+01  7.320482124005E+01  7.412249919703E+01  7.506062724351E+01
  7.601802437882E+01  7.699327667983E+01  7.798471531880E+01  7.899039351889E+01
  8.000806254964E+01  8.103514690345E+01  8.206871883956E+01  8.310547253455E+01
  8.414169813868E+01  8.517325610590E+01  8.619555224271E+01  8.720351400655E+01
  8.819156867963E+01  8.915362414657E+01  9.008305311481E+01  9.097268173330E+01
  9.181478368542E+01  9.260108095370E+01  9.332275257309E+01  9.397045280073E+01
  9.453434022817E+01  9.500411943786E+01  9.536909685232E+01  9.550885156398E+01
  9.561825242863E+01  9.569588555182E+01  9.574032880349E+01  9.575015566116E+01
  9.572393937880E+01  9.566025748872E+01  9.555769664214E+01  9.541485779253E+01
  9.523036172349E+01  9.500285492076E+01  9.473101578529E+01  9.441356118141E+01
  9.404925331099E+01  9.363690690083E+01  9.317539668695E+01  9.266366517514E+01
  9.210073065288E+01  9.148569542300E+01  9.081775422457E+01  9.009620280126E+01
  8.932044657217E+01  8.849000935444E+01  8.760454208138E+01  8.666383145408E+01
  8.566780845888E+01  8.461655667713E+01  8.351032030846E+01  8.234951182342E+01
  8.113471915647E+01  7.986671234580E+01  7.854644952279E+01  7.717508215067E+01
  7.575395940975E+01  7.428463162523E+01  7.276885263360E+01  7.120858098471E+01
  6.960597987921E+01  6.796341574516E+01  6.628345536351E+01  6.456886145984E+01
  6.282258668917E+01  6.104776595240E+01  5.924770699637E+01  5.742587926536E+01
  5.558590098936E+01  5.373152451426E+01  5.186661990068E+01  4.999515684127E+01
  4.812118497122E+01  4.624881267265E+01  4.438218450048E+01  4.252545738446E+01
  4.068277578993E+01  3.885824604624E+01  3.705591007792E+01  3.527971879782E+01
  3.353350544312E+01  3.182095915438E+01  3.014559911235E+01  2.851074955897E+01
  2.691951603410E+01  2.537476316043E+01  2.387909430300E+01  2.243483341770E+01
  2.104400938414E+01  1.970834309238E+01  1.842923752033E+01  1.720777099940E+01
  1.604469382012E+01  1.494042827880E+01  1.389507221009E+01  1.290840599119E+01
  1.197990294176E+01  1.110874298081E+01  1.029382934038E+01  9.533808076183E+00
  8.827090060568E+00  8.171875093781E+00  7.566177728090E+00  7.007854366983E+00
  6.494631179626E+00  6.024132360264E+00  5.593908263700E+00  5.201462961699E+00
  4.844280790864E+00  4.519851499444E+00  4.225693647553E+00  3.959375970627E+00
  3.718536591608E+00  3.500900179750E+00  3.304292544239E+00  3.126651739662E+00
  2.966036602850E+00  2.820632721052E+00  2.688756039838E+00  2.568854276225E+00
  2.459506364103E+00  2.359420174816E+00  2.267428769367E+00  2.182485440954E+00
  2.103657799651E+00  2.030120808054E+00  1.961148124925E+00  1.896103045900E+00
  1.834431961350E+00  1.775658724325E+00  1.719378279440E+00  1.665250655633E+00
  1.612995008438E+00  1.562383769255E+00  1.513236891164E+00  1.465416184986E+00
  1.418818475237E+00  1.373364178737E+00  1.328985232788E+00  1.285622523893E+00
  1.243226468861E+00  1.201755317443E+00  1.161174389648E+00  1.121455239780E+00
  1.082574889389E+00  1.044515115298E+00  1.007261791357E+00  9.708042814769E-01
  9.351348823348E-01  9.002483136932E-01  8.661412542870E-01  8.328119212027E-01
  8.002596906446E-01  7.684847579701E-01  7.374878348679E-01  7.072698815736E-01
  6.778318719474E-01  6.491745894692E-01  6.212984519489E-01  5.942033630090E-01
  5.678885883471E-01  5.423526548543E-01  5.175932707183E-01  4.936072647166E-01
  4.703905428899E-01  4.479380610521E-01  4.262438114084E-01  4.053008218152E-01
  3.851011662232E-01  3.656359849331E-01  3.468955133730E-01  3.288691181877E-01
  3.115453395093E-01  2.949119383593E-01  2.789559482090E-01  2.636637298028E-01
  2.490210284258E-01  2.350130328675E-01  2.216244354061E-01  2.088394922067E-01
  1.966420835881E-01  1.850157736811E-01  1.739438690536E-01  1.634094759413E-01
  1.533955557612E-01  1.438849786504E-01  1.348605748059E-01  1.263051834444E-01
  1.182016992415E-01  1.105331161392E-01  1.032825684463E-01  9.643336917742E-02
  8.996904560621E-02  8.387337202482E-02  7.813039972290E-02  7.272448421403E-02
  6.764030975164E-02  6.286291118819E-02  5.837769324159E-02  5.417044724159E-02
  5.022736543620E-02  4.653505294507E-02  4.308053745208E-02  3.985127673464E-02
  3.683516413130E-02  3.402053205338E-02  3.139615364925E-02  2.895124273286E-02
  2.667545209039E-02  2.455887028028E-02  2.259201704337E-02  2.076583744004E-02
  1.907169483127E-02  1.750136281956E-02  1.604701626435E-02  1.470122148416E-02
  1.345692575511E-02  1.230744621194E-02  1.124645825359E-02  1.026798355105E-02
  9.366377750206E-03  8.536317956825E-03  7.772790085618E-03  7.071076148974E-03
  6.426741555221E-03  5.835622480001E-03  5.293813368185E-03  4.797654617677E-03
  4.343720490371E-03  3.928807289698E-03  3.549921838474E-03  3.204270285345E-03
  2.889247262925E-03  2.602425415862E-03  2.341545312523E-03  2.104505749759E-03
  1.889354456403E-03  1.694279197661E-03  1.517599279478E-03  1.357757449216E-03
  1.213312186683E-03  1.082930377528E-03  9.653803593982E-04  8.595253299667E-04
  7.643171049266E-04  6.787902133315E-04  6.020563172111E-04  5.332989421417E-04
  4.717685053977E-04  4.167776284218E-04  3.676967205815E-04  3.239498215147E-04
  2.850106897714E-04  2.503991259121E-04  2.196775187066E-04  1.924476035672E-04
  1.683474228406E-04  1.470484780583E-04  1.282530646947E-04  1.116917804126E-04
  9.712119816888E-05  8.432169591880E-05  7.309543499427E-05  6.326447953849E-05
  5.466904966266E-05  4.716590124985E-05  4.062682557540E-05  3.493726214178E-05
  2.999501833942E-05  2.570908975634E-05  2.199857516216E-05  1.879168039162E-05
  1.602480555226E-05  1.364171018044E-05  1.159275117055E-05  9.834188505413E-06
  8.327554020314E-06  7.039078640616E-06  5.939173741476E-06  5.001962488224E-06
  4.204857226469E-06  3.528179201073E-06  2.954817092028E-06  2.469921061968E-06
  2.060629213611E-06  1.715823555062E-06  1.425912765628E-06  1.182639244005E-06
  9.789081035046E-07  8.086359550329E-07  6.666174870962E-07  5.484080129715E-07
  4.502203079360E-07  3.688342039431E-07  3.015175452534E-07  2.459572362269E-07
  2.001992318378E-07  1.625964325762E-07  1.317635484554E-07  1.065380920635E-07
  8.594674826898E-08  6.917644862129E-08  5.554955201309E-08  4.450260015765E-08
  3.556817725189E-08  2.835945822548E-08  2.255707960520E-08  1.789801163225E-08
  1.416615023629E-08  1.118438315956E-08  8.807916293968E-09  6.918674481575E-09
  5.420615960893E-09  4.235821622034E-09  3.301239552529E-09  2.565982280722E-09
  1.989088905286E-09  1.537677168442E-09  1.185421699275E-09  9.113043162133E-10
  6.985906112314E-10  5.339942028025E-10  4.069961846213E-10  3.092925425492E-10
  2.343467791577E-10  1.770287771165E-10  1.333241412029E-10  1.001009649066E-10
  7.492324274569E-11  5.590205592914E-11  4.157725141146E-11  3.082366004473E-11
  2.277699948251E-11  1.677551710348E-11  1.231417790996E-11  9.008818140603E-12
  6.568189405327E-12  4.772229349746E-12  3.455229130499E-12  2.492838769548E-12
  1.792070036723E-12  1.283632319942E-12  9.160778412650E-13  6.513450854958E-13
  4.613788167833E-13  3.255760048245E-13  2.288630045855E-13  1.602534035510E-13
  1.117704856471E-13  7.764521941527E-14  5.372163973097E-14  3.701772686105E-14
  2.540240978910E-14  1.735894193921E-14  1.181225897789E-14  8.003537598128E-15
  5.399431496937E-15  3.626673848565E-15  2.425160693423E-15  1.614436445383E-15
  1.069858576915E-15  7.057210420265E-16  4.633583870383E-16  3.027986604743E-16
  1.969333234633E-16  1.274640939848E-16  8.209838511325E-17  5.261793373177E-17
  3.355515754840E-17  2.129043344072E-17  1.343947026286E-17  8.439647102068E-18
  5.272080031938E-18  2.777865973851E-18  0.000000000000E+00  0.000000000000E+00
  0.000000000000E+00  0.000000000000E+00  0.000000000000E+00  0.000000000000E+00
  0.000000000000E+00  0.000000000000E+00  0.000000000000E+00  0.000000000000E+00
  0.000000000000E+00  0.000000000000E+00  0.000000000000E+00  0.000000000000E+00
  0.000000000000E+00  0.000000000000E+00  0.000000000000E+00  0.000000000000E+00
  0.000000000000E+00  0.000000000000E+00  0.000000000000E+00  0.000000000000E+00
  0.000000000000E+00  0.000000000000E+00  0.000000000000E+00  0.000000000000E+00
  0.000000000000E+00  0.000000000000E+00  0.000000000000E+00  0.000000000000E+00
  0.000000000000E+00  0.000000000000E+00  0.000000000000E+00  0.000000000000E+00
  0.000000000000E+00  0.000000000000E+00  0.000000000000E+00  0.000000000000E+00
  0.000000000000E+00
</data>
</radfunc>
</valence-charge>
<pseudocore-charge matching-radius="0.311328606634"
 number-of-continuous-derivatives="4">
<annotation model-charge-form="Teter function with specified parameters" />
<radfunc>
<data npts="291">
  2.327888539892E+02  2.327038566537E+02  2.324499140174E+02  2.320267271449E+02
  2.314068498182E+02  2.306177770492E+02  2.296151423339E+02  2.284711967107E+02
  2.271902390496E+02  2.257034855413E+02  2.240367215108E+02  2.222359114000E+02
  2.200745406776E+02  2.178346614436E+02  2.156147826699E+02  2.130795943992E+02
  2.101889313419E+02  2.074770321871E+02  2.044607985016E+02  2.011116072530E+02
  1.973996223276E+02  1.941482347388E+02  1.906291860848E+02  1.868267327283E+02
  1.827255325902E+02  1.783109965902E+02  1.735697105309E+02  1.697921747492E+02
  1.658200412282E+02  1.616500257803E+02  1.572798811038E+02  1.527085817806E+02
  1.479365228910E+02  1.429657305378E+02  1.378000817326E+02  1.324455300971E+02
  1.269103326807E+02  1.212052718744E+02  1.173140862361E+02  1.133580731779E+02
  1.093425521711E+02  1.052734602313E+02  1.011573656871E+02  9.700147685692E+01
  9.281364476015E+01  8.860235894963E+01  8.437673552638E+01  8.014649638934E+01
  7.592193878578E+01  7.171389426830E+01  6.753367623534E+01  6.339301534012E+01
  5.930398220179E+01  5.527889704759E+01  5.133022615953E+01  4.747046529628E+01
  4.371201061271E+01  4.006701800401E+01  3.654725225667E+01  3.316392788801E+01
  2.992754408909E+01  2.684771673963E+01  2.393301101805E+01  2.119077866197E+01
  1.862700441545E+01  1.624616659539E+01  1.405111698398E+01  1.302368509973E+01
  1.204298536639E+01  1.110887917069E+01  1.022111394299E+01  9.379323080692E+00
  8.583026513406E+00  7.831631935070E+00  7.124436722796E+00  6.460630557215E+00
  5.839298752985E+00  5.259426301500E+00  4.719902620911E+00  4.219527000777E+00
  3.757014720826E+00  3.331003814915E+00  2.940062442688E+00  2.582696822789E+00
  2.257359672749E+00  1.962459092143E+00  1.696367817347E+00  1.457432768427E+00
  1.243984801534E+00  1.054348573812E+00  8.868524224655E-01  7.398381554238E-01
  6.116706481885E-01  5.007471400850E-01  4.055061234313E-01  3.244357211977E-01
  2.560814526617E-01  1.990532924209E-01  1.520319359449E-01  1.137741945998E-01
  8.311745469808E-02  5.898314849762E-02  4.037920001645E-02  2.640142481355E-02
  1.623388023155E-02  9.148180658525E-03  4.501810761868E-03  1.735487947985E-03
  3.696430475058E-04  1.049364437944E-07  2.930899912101E-04  9.796104602226E-04
  1.849426562990E-03  2.744674988899E-03  3.553311114816E-03  4.202503426380E-03
  4.652116144298E-03  4.888409869337E-03  4.918080239295E-03  4.762741343199E-03
  4.453944304567E-03  4.028802503580E-03  3.526273959295E-03  2.984129148696E-03
  2.436609796775E-03  1.912761784775E-03  1.435404167401E-03  1.020677220513E-03
  6.780962532623E-04  4.110253021955E-04  2.174763216939E-04  9.113545270453E-05
  2.251853284581E-05  1.631135137198E-07  1.177353923152E-05  4.524855142192E-05
  8.953662041259E-05  1.352818284756E-04  1.752415438292E-04  2.044752048434E-04
  2.203201564042E-04  2.221846227380E-04  2.111987103664E-04  1.897711978329E-04
  1.611024648741E-04  1.287022483808E-04  9.595532578594E-05  6.576937283185E-05
  4.032804220132E-05  2.095987280196E-05  8.121170356817E-06  1.479684336039E-06
  7.679745099297E-08  2.539855610467E-06  7.313685593608E-06  1.288137965889E-05
  1.794877766954E-05  2.157408550331E-05  2.323277491694E-05  2.281717204501E-05
  2.057877208454E-05  1.702823506068E-05  1.281238862978E-05  8.588917541546E-06
  4.917714429269E-06  2.183500315434E-06  5.580757699084E-07  3.482525527947E-09
  0.000000000000E+00  0.000000000000E+00  0.000000000000E+00  0.000000000000E+00
  0.000000000000E+00  0.000000000000E+00  0.000000000000E+00  0.000000000000E+00
  0.000000000000E+00  0.000000000000E+00  0.000000000000E+00  0.000000000000E+00
  0.000000000000E+00  0.000000000000E+00  0.000000000000E+00  0.000000000000E+00
  0.000000000000E+00  0.000000000000E+00  0.000000000000E+00  0.000000000000E+00
  0.000000000000E+00  0.000000000000E+00  0.000000000000E+00  0.000000000000E+00
  0.000000000000E+00  0.000000000000E+00  0.000000000000E+00  0.000000000000E+00
  0.000000000000E+00  0.000000000000E+00  0.000000000000E+00  0.000000000000E+00
  0.000000000000E+00  0.000000000000E+00  0.000000000000E+00  0.000000000000E+00
  0.000000000000E+00  0.000000000000E+00  0.000000000000E+00  0.000000000000E+00
  0.000000000000E+00  0.000000000000E+00  0.000000000000E+00  0.000000000000E+00
  0.000000000000E+00  0.000000000000E+00  0.000000000000E+00  0.000000000000E+00
  0.000000000000E+00  0.000000000000E+00  0.000000000000E+00  0.000000000000E+00
  0.000000000000E+00  0.000000000000E+00  0.000000000000E+00  0.000000000000E+00
  0.000000000000E+00  0.000000000000E+00  0.000000000000E+00  0.000000000000E+00
  0.000000000000E+00  0.000000000000E+00  0.000000000000E+00  0.000000000000E+00
  0.000000000000E+00  0.000000000000E+00  0.000000000000E+00  0.000000000000E+00
  0.000000000000E+00  0.000000000000E+00  0.000000000000E+00  0.000000000000E+00
  0.000000000000E+00  0.000000000000E+00  0.000000000000E+00  0.000000000000E+00
  0.000000000000E+00  0.000000000000E+00  0.000000000000E+00  0.000000000000E+00
  0.000000000000E+00  0.000000000000E+00  0.000000000000E+00  0.000000000000E+00
  0.000000000000E+00  0.000000000000E+00  0.000000000000E+00  0.000000000000E+00
  0.000000000000E+00  0.000000000000E+00  0.000000000000E+00  0.000000000000E+00
  0.000000000000E+00  0.000000000000E+00  0.000000000000E+00  0.000000000000E+00
  0.000000000000E+00  0.000000000000E+00  0.000000000000E+00  0.000000000000E+00
  0.000000000000E+00  0.000000000000E+00  0.000000000000E+00  0.000000000000E+00
  0.000000000000E+00  0.000000000000E+00  0.000000000000E+00  0.000000000000E+00
  0.000000000000E+00  0.000000000000E+00  0.000000000000E+00  0.000000000000E+00
  0.000000000000E+00  0.000000000000E+00  0.000000000000E+00  0.000000000000E+00
  0.000000000000E+00  0.000000000000E+00  0.000000000000E+00  0.000000000000E+00
  0.000000000000E+00  0.000000000000E+00  0.000000000000E+00
</data>
</radfunc>
</pseudocore-charge>
<semilocal-potentials set="scalar_relativistic">
<slps n="3" l="s" rc="1.21282308111">
<radfunc>
<data npts="291">
 -4.500923502657E+01 -4.500883491591E+01 -4.500763999338E+01 -4.500565030144E+01
 -4.500273934923E+01 -4.499903962834E+01 -4.499434734020E+01 -4.498900475458E+01
 -4.498303486237E+01 -4.497612048722E+01 -4.496838472206E+01 -4.496004177730E+01
 -4.495004311350E+01 -4.493969100486E+01 -4.492943354694E+01 -4.491771227452E+01
 -4.490432523355E+01 -4.489173098627E+01 -4.487766743315E+01 -4.486196175677E+01
 -4.484441663592E+01 -4.482890466087E+01 -4.481193794541E+01 -4.479336591632E+01
 -4.477301686647E+01 -4.475069386501E+01 -4.472616982439E+01 -4.470617559539E+01
 -4.468466953074E+01 -4.466150943053E+01 -4.463653524759E+01 -4.460956652705E+01
 -4.458039948958E+01 -4.454880371151E+01 -4.451451834956E+01 -4.447724785183E+01
 -4.443665709207E+01 -4.439236586045E+01 -4.436057177956E+01 -4.432680052359E+01
 -4.429089765206E+01 -4.425269514217E+01 -4.421201024436E+01 -4.416864427774E+01
 -4.412238137913E+01 -4.407298722767E+01 -4.402020777918E+01 -4.396376805997E+01
 -4.390337109022E+01 -4.383869703146E+01 -4.376940268106E+01 -4.369512146631E+01
 -4.361546411605E+01 -4.353002020142E+01 -4.343836072605E+01 -4.334004189351E+01
 -4.323461006898E+01 -4.312160777001E+01 -4.300058026846E+01 -4.287108209291E+01
 -4.273268245288E+01 -4.258496846934E+01 -4.242754520910E+01 -4.226003196704E+01
 -4.208205499962E+01 -4.189323781462E+01 -4.169319086678E+01 -4.158882870777E+01
 -4.148150278137E+01 -4.137115735332E+01 -4.125773486736E+01 -4.114117600433E+01
 -4.102141979917E+01 -4.089840380659E+01 -4.077206430560E+01 -4.064233653337E+01
 -4.050915494068E+01 -4.037245346384E+01 -4.023216581043E+01 -4.008822575964E+01
 -3.994056747960E+01 -3.978912586629E+01 -3.963383690841E+01 -3.947463808230E+01
 -3.931146877868E+01 -3.914427076000E+01 -3.897298864365E+01 -3.879757040179E+01
 -3.861796786494E+01 -3.843413721276E+01 -3.824603943361E+01 -3.805364073336E+01
 -3.785691287531E+01 -3.765583343592E+01 -3.745038596565E+01 -3.724056005040E+01
 -3.702635127579E+01 -3.680776110362E+01 -3.658479667626E+01 -3.635747057021E+01
 -3.612580052338E+01 -3.588980916229E+01 -3.564952375510E+01 -3.540497601333E+01
 -3.515620196157E+01 -3.490324188877E+01 -3.464614038922E+01 -3.438494649513E+01
 -3.411971389734E+01 -3.385050124576E+01 -3.357737251741E+01 -3.330039743660E+01
 -3.301965193038E+01 -3.273521860062E+01 -3.244718719412E+01 -3.215565505182E+01
 -3.186072751861E+01 -3.156251829571E+01 -3.126114971818E+01 -3.095675294089E+01
 -3.064946801689E+01 -3.033944385344E+01 -3.002683803259E+01 -2.971181648560E+01
 -2.939455301427E+01 -2.907522865792E+01 -2.875403091237E+01 -2.843115281798E+01
 -2.810679194772E+01 -2.778114934348E+01 -2.745442846937E+01 -2.712683427375E+01
 -2.679857247549E+01 -2.646984921215E+01 -2.614087120498E+01 -2.581184660406E+01
 -2.548298667341E+01 -2.515450845691E+01 -2.482663853274E+01 -2.449961791770E+01
 -2.417370813167E+01 -2.384919838435E+01 -2.352641381280E+01 -2.320572468767E+01
 -2.288755652152E+01 -2.257240105008E+01 -2.226082810318E+01 -2.195349841731E+01
 -2.165117745192E+01 -2.135475025852E+01 -2.106523745731E+01 -2.078381249503E+01