<?xml version="1.0" encoding="UTF-8" ?>
<psml version="1.1" energy_unit="hartree" length_unit="bohr"
 uuid="541f8100-471b-11e8-6e9b-4b80fff7ebec"
 xmlns="http://esl.cecam.org/PSML/ns/1.1">
<provenance creator="ONCVPSP-3.3.0+psml-3.3.0-73 (fully-relativistic)"
 date="2018-04-23">
<annotation action="semilocal-pseudopotential-generation"
 action-cont="projectors-generation" />
<input-file name="oncvpsp-input">
<![CDATA[# atsym z nc nv iexc psfile
F 9 1 2 4 both
# n l f
1 0 2.0
2 0 2.0
2 1 5.0
# lmax
2
# l rc ep ncon nbas qcut
0 1.3 0.0 4 8 8.6
1 1.45 0.0 4 8 9.0
2 1.6 0.15 4 8 5.8
# lloc lpopt rc5 dvloc0
4 5 0.95 0.0
# l nproj debl
0 2 1.5
1 2 1.5
2 1 2.0
# icmod fcfact rcfact
3 2.5 1.85
# epsh1 epsh2 depsh
-12.0 12.0 0.02
# rlmax drl
6.0 0.01
 0
]]>
</input-file>
</provenance>
<pseudo-atom-spec atomic-label="F" atomic-number="9" z-pseudo="7"
 flavor="Hamann&apos;s oncvpsp" relativity="dirac" spin-dft="no"
 core-corrections="yes">
<annotation pseudo-energy="-23.8725700146" />
<exchange-correlation>
<annotation oncvpsp-xc-code="4" oncvpsp-xc-type="GGA -- Perdew-Burke-Ernzerhof" />
<libxc-info number-of-functionals="2">
<functional name="Perdew, Burke &amp; Ernzerhof (GGA)" type="exchange" id="101" />
<functional name="Perdew, Burke &amp; Ernzerhof (GGA)" type="correlation"
 id="130" />
</libxc-info>
</exchange-correlation>
<valence-configuration total-valence-charge="7">
<shell n="2" l="s" occupation="2" />
<shell n="2" l="p" occupation="5" />
</valence-configuration>
</pseudo-atom-spec>
<grid npts="457">
<annotation type="sampled from oncvpsp log grid"
 recipe="r(i:1..N) = r1*exp(a*(i-1)) + r=0; resampled"
 recipe-cont="r1: scale; a: step" scale="0.555555555556E-04"
 step="0.119285708653E-01" delta="0.500000000000E-02" rmax="44.1907361906" />
<grid-data>
  0.000000000000E+00  5.046162377637E-03  1.007931334073E-02  1.512057726285E-02
  2.013263740199E-02  2.525401356072E-02  3.056459245980E-02  3.569153875685E-02
  4.069592361693E-02  4.585176253312E-02  5.104822514639E-02  5.615969585203E-02
  6.178297931314E-02  6.716336310323E-02  7.301229875098E-02  7.842943695036E-02
  8.424849902796E-02  8.942619137815E-02  9.492209115497E-02  1.007557545544E-01
  1.069479396451E-01  1.121745852098E-01  1.176566618182E-01  1.234066526239E-01
  1.294376508434E-01  1.357633895713E-01  1.423982730511E-01  1.475863729991E-01
  1.529634947694E-01  1.585365251318E-01  1.643126017665E-01  1.702991224063E-01
  1.765037543106E-01  1.829344440862E-01  1.895994278638E-01  1.965072418476E-01
  2.036667332471E-01  2.110870716089E-01  2.161835578658E-01  2.214030936869E-01
  2.267486499809E-01  2.322232693860E-01  2.378300680021E-01  2.435722371639E-01
  2.494530452580E-01  2.554758395827E-01  2.616440482536E-01  2.679611821546E-01
  2.744308369366E-01  2.810566950636E-01  2.878425279092E-01  2.947921979030E-01
  3.019096607292E-01  3.091989675778E-01  3.166642674510E-01  3.243098095244E-01
  3.321399455655E-01  3.401591324113E-01  3.483719345042E-01  3.567830264909E-01
  3.653971958825E-01  3.742193457798E-01  3.832544976644E-01  3.925077942560E-01
  4.019845024405E-01  4.116900162674E-01  4.216298600202E-01  4.266894183404E-01
  4.318096913605E-01  4.369914076568E-01  4.422353045487E-01  4.475421282033E-01
  4.529126337417E-01  4.583475853466E-01  4.638477563708E-01  4.694139294472E-01
  4.750468966006E-01  4.807474593598E-01  4.865164288721E-01  4.923546260186E-01
  4.982628815308E-01  5.042420361092E-01  5.102929405425E-01  5.164164558290E-01
  5.226134532990E-01  5.288848147385E-01  5.352314325154E-01  5.416542097056E-01
  5.481540602221E-01  5.547319089447E-01  5.613886918521E-01  5.681253561543E-01
  5.749428604281E-01  5.818421747533E-01  5.888242808503E-01  5.958901722205E-01
  6.030408542872E-01  6.102773445386E-01  6.176006726731E-01  6.250118807451E-01
  6.325120233141E-01  6.401021675939E-01  6.477833936050E-01  6.555567943282E-01
  6.634234758602E-01  6.713845575705E-01  6.794411722613E-01  6.875944663285E-01
  6.958455999244E-01  7.041957471235E-01  7.126460960890E-01  7.211978492421E-01
  7.298522234330E-01  7.386104501142E-01  7.474737755155E-01  7.564434608217E-01
  7.655207823516E-01  7.747070317398E-01  7.840035161207E-01  7.934115583141E-01
  8.029324970139E-01  8.125676869781E-01  8.223184992218E-01  8.321863212125E-01
  8.421725570670E-01  8.522786277518E-01  8.625059712848E-01  8.728560429403E-01
  8.833303154555E-01  8.939302792410E-01  9.046574425919E-01  9.155133319030E-01
  9.264994918858E-01  9.376174857885E-01  9.488688956179E-01  9.602553223653E-01
  9.717783862337E-01  9.834397268685E-01  9.952410035910E-01  1.007183895634E+00
  1.019270102382E+00  1.031501343610E+00  1.043879359734E+00  1.056405912050E+00
  1.069082782995E+00  1.081911776391E+00  1.094894717708E+00  1.108033454320E+00
  1.121329855772E+00  1.134785814041E+00  1.148403243810E+00  1.162184082735E+00
  1.176130291728E+00  1.190243855229E+00  1.204526781492E+00  1.218981102870E+00
  1.233608876104E+00  1.248412182617E+00  1.263393128809E+00  1.278553846354E+00
  1.293896492511E+00  1.309423250421E+00  1.325136329426E+00  1.341037965379E+00
  1.357130420963E+00  1.373415986015E+00  1.389896977847E+00  1.406575741581E+00
  1.423454650480E+00  1.440536106286E+00  1.457822539562E+00  1.475316410036E+00
  1.493020206957E+00  1.510936449440E+00  1.529067686834E+00  1.547416499076E+00
  1.565985497064E+00  1.584777323029E+00  1.603794650906E+00  1.623040186716E+00
  1.642516668957E+00  1.662226868985E+00  1.682173591412E+00  1.702359674509E+00
  1.722787990603E+00  1.743461446491E+00  1.764382983849E+00  1.785555579655E+00
  1.806982246611E+00  1.828666033570E+00  1.850610025973E+00  1.872817346284E+00
  1.895291154440E+00  1.918034648293E+00  1.941051064073E+00  1.964343676841E+00
  1.987915800964E+00  2.011770790575E+00  2.035912040062E+00  2.060342984543E+00
  2.085067100357E+00  2.110087905562E+00  2.135408960428E+00  2.161033867953E+00
  2.186966274369E+00  2.213209869661E+00  2.239768388097E+00  2.266645608754E+00
  2.293845356059E+00  2.321371500332E+00  2.349227958336E+00  2.377418693836E+00
  2.405947718162E+00  2.434819090780E+00  2.464036919870E+00  2.493605362908E+00
  2.523528627263E+00  2.553810970790E+00  2.584456702440E+00  2.615470182869E+00
  2.646855825063E+00  2.678618094964E+00  2.710761512104E+00  2.743290650249E+00
  2.776210138052E+00  2.809524659708E+00  2.843238955625E+00  2.877357823092E+00
  2.911886116969E+00  2.946828750373E+00  2.982190695378E+00  3.017976983722E+00
  3.054192707527E+00  3.090843020017E+00  3.127933136257E+00  3.165468333892E+00
  3.203453953899E+00  3.241895401346E+00  3.280798146162E+00  3.320167723916E+00
  3.360009736603E+00  3.400329853442E+00  3.441133811684E+00  3.482427417424E+00
  3.524216546433E+00  3.566507144990E+00  3.609305230730E+00  3.652616893499E+00
  3.696448296221E+00  3.740805675775E+00  3.785695343885E+00  3.831123688011E+00
  3.877097172267E+00  3.923622338335E+00  3.970705806395E+00  4.018354276071E+00
  4.066574527384E+00  4.115373421713E+00  4.164757902773E+00  4.214734997607E+00
  4.265311817578E+00  4.316495559389E+00  4.368293506101E+00  4.420713028175E+00
  4.473761584513E+00  4.527446723527E+00  4.581776084209E+00  4.636757397220E+00
  4.692398485986E+00  4.748707267818E+00  4.805691755032E+00  4.863360056092E+00
  4.921720376766E+00  4.980781021287E+00  5.040550393542E+00  5.101036998265E+00
  5.162249442244E+00  5.224196435551E+00  5.286886792777E+00  5.350329434291E+00
  5.414533387502E+00  5.479507788152E+00  5.545261881610E+00  5.611805024189E+00
  5.679146684480E+00  5.747296444693E+00  5.816264002030E+00  5.886059170054E+00
  5.956691880095E+00  6.028172182656E+00  6.100510248848E+00  6.173716371834E+00
  6.247800968296E+00  6.322774579916E+00  6.398647874875E+00  6.475431649373E+00
  6.553136829165E+00  6.631774471115E+00  6.711355764769E+00  6.791892033946E+00
  6.873394738353E+00  6.955875475214E+00  7.039345980916E+00  7.123818132687E+00
  7.209303950279E+00  7.295815597683E+00  7.383365384855E+00  7.471965769473E+00
  7.561629358707E+00  7.652368911011E+00  7.744197337944E+00  7.837127705999E+00
  7.931173238471E+00  8.026347317333E+00  8.122663485141E+00  8.220135446962E+00
  8.318777072326E+00  8.418602397194E+00  8.519625625960E+00  8.621861133472E+00
  8.725323467073E+00  8.830027348678E+00  8.935987676862E+00  9.043219528985E+00
  9.151738163332E+00  9.261559021292E+00  9.372697729548E+00  9.485170102302E+00
  9.598992143530E+00  9.714180049252E+00  9.830750209843E+00  9.948719212362E+00
  1.006810384291E+01  1.018892108902E+01  1.031118814209E+01  1.043492239980E+01
  1.056014146860E+01  1.068686316622E+01  1.081510552421E+01  1.094488679050E+01
  1.107622543199E+01  1.120914013717E+01  1.134364981882E+01  1.147977361665E+01
  1.161753090005E+01  1.175694127085E+01  1.189802456610E+01  1.204080086089E+01
  1.218529047122E+01  1.233151395687E+01  1.247949212436E+01  1.262924602985E+01
  1.278079698221E+01  1.293416654599E+01  1.308937654455E+01  1.324644906308E+01
  1.340540645184E+01  1.356627132926E+01  1.372906658521E+01  1.389381538423E+01
  1.406054116884E+01  1.422926766287E+01  1.440001887482E+01  1.457281910132E+01
  1.474769293054E+01  1.492466524571E+01  1.510376122865E+01  1.528500636340E+01
  1.546842643976E+01  1.565404755704E+01  1.584189612772E+01  1.603199888125E+01
  1.622438286783E+01  1.641907546224E+01  1.661610436779E+01  1.681549762020E+01
  1.701728359164E+01  1.722149099474E+01  1.742814888668E+01  1.763728667332E+01
  1.784893411340E+01  1.806312132276E+01  1.827987877863E+01  1.849923732398E+01
  1.872122817187E+01  1.894588290993E+01  1.917323350485E+01  1.940331230691E+01
  1.963615205459E+01  1.987178587924E+01  2.011024730979E+01  2.035157027751E+01
  2.059578912084E+01  2.084293859029E+01  2.109305385338E+01  2.134617049962E+01
  2.160232454561E+01  2.186155244016E+01  2.212389106944E+01  2.238937776227E+01
  2.265805029542E+01  2.292994689897E+01  2.320510626175E+01  2.348356753690E+01
  2.376537034734E+01  2.405055479151E+01  2.433916144900E+01  2.463123138639E+01
  2.492680616303E+01  2.522592783699E+01  2.552863897103E+01  2.583498263868E+01
  2.614500243035E+01  2.645874245951E+01  2.677624736902E+01  2.709756233745E+01
  2.742273308550E+01  2.775180588253E+01  2.808482755312E+01  2.842184548376E+01
  2.876290762956E+01  2.910806252112E+01  2.945735927137E+01  2.981084758263E+01
  3.016857775362E+01  3.053060068666E+01  3.089696789490E+01  3.126773150964E+01
  3.164294428775E+01  3.202265961921E+01  3.240693153464E+01  3.279581471305E+01
  3.318936448961E+01  3.358763686349E+01  3.399068850585E+01  3.439857676792E+01
  3.481135968913E+01  3.522909600540E+01  3.565184515747E+01  3.607966729936E+01
  3.651262330695E+01  3.695077478663E+01  3.739418408407E+01  3.784291429308E+01
  3.829702926460E+01  3.875659361577E+01  3.922167273916E+01  3.969233281203E+01
  4.016864080578E+01  4.065066449545E+01  4.113847246939E+01  4.163213413902E+01
  4.213171974869E+01  4.263730038568E+01  4.314894799030E+01  4.366673536619E+01
  4.419073619058E+01
</grid-data>
</grid>
<valence-charge total-charge="7" is-unscreening-charge="yes"
 rescaled-to-z-pseudo="no">
<radfunc>
<data npts="457">
  6.802220744357E+00  6.805759931076E+00  6.816336161935E+00  6.833969101075E+00
  6.858460335718E+00  6.890620197769E+00  6.931535925021E+00  6.978289472622E+00
  7.030733297088E+00  7.091723335307E+00  7.160253122785E+00  7.234480294486E+00
  7.323826826342E+00  7.416718238262E+00  7.525743370466E+00  7.634026552434E+00
  7.757974267088E+00  7.874729572216E+00  8.005132786543E+00  8.150614435210E+00
  8.312709922760E+00  8.455443703139E+00  8.610733358841E+00  8.779488501164E+00
  8.962642338392E+00  9.161141630113E+00  9.375933581352E+00  9.548280782461E+00
  9.730697094562E+00  9.923544942032E+00  1.012716210779E+01  1.034185368305E+01
  1.056788283107E+01  1.080546026223E+01  1.105473232183E+01  1.131576760121E+01
  1.158854199699E+01  1.187292216503E+01  1.206883365475E+01  1.226967765001E+01
  1.247530957730E+01  1.268555013023E+01  1.290018224403E+01  1.311894796481E+01
  1.334154523114E+01  1.356762459000E+01  1.379678587425E+01  1.402857487399E+01
  1.426248004074E+01  1.449792926973E+01  1.473428681283E+01  1.497085038255E+01
  1.520684851541E+01  1.544143827153E+01  1.567370335603E+01  1.590265275634E+01
  1.612721999804E+01  1.634626312991E+01  1.655856555615E+01  1.676283783952E+01
  1.695772060392E+01  1.714178866702E+01  1.731355653330E+01  1.747148537400E+01
  1.761399161297E+01  1.773945722493E+01  1.784624183487E+01  1.789211343349E+01
  1.793269668343E+01  1.796778678274E+01  1.799718049278E+01  1.802067673721E+01
  1.803807722944E+01  1.804918712750E+01  1.805381571529E+01  1.805177710874E+01
  1.804289098526E+01  1.802698333464E+01  1.800388722905E+01  1.797344360972E+01
  1.793550208746E+01  1.788992175387E+01  1.783657199980E+01  1.777533333737E+01
  1.770609822129E+01  1.762877186530E+01  1.754327304890E+01  1.744953490940E+01
  1.734750571415E+01  1.723714960728E+01  1.711844732532E+01  1.699139687584E+01
  1.685601417285E+01  1.671233362297E+01  1.656040865595E+01  1.640031219335E+01
  1.623213704913E+01  1.605599625594E+01  1.587202331127E+01  1.568037233754E+01
  1.548121815089E+01  1.527475623344E+01  1.506120260459E+01  1.484079358723E+01
  1.461378546539E+01  1.438045403075E+01  1.414109401590E+01  1.389601841327E+01
  1.364555767956E+01  1.339005882642E+01  1.312988439906E+01  1.286541134575E+01
  1.259702978204E+01  1.232514165474E+01  1.205015931181E+01  1.177250398540E+01
  1.149260419634E+01  1.121089408934E+01  1.092781170935E+01  1.064379723014E+01
  1.035929114716E+01  1.007473244728E+01  9.790556768771E+00  9.507194565061E+00
  9.225069286224E+00  8.944595592264E+00  8.666177612113E+00  8.390207262102E+00
  8.117062637200E+00  7.847106487764E+00  7.580684793767E+00  7.318125447579E+00
  7.059737055312E+00  6.805807865548E+00  6.556604833020E+00  6.312372823376E+00
  6.073333963804E+00  5.839687142774E+00  5.611607660748E+00  5.389247032248E+00
  5.172732938329E+00  4.962169327208E+00  4.757636659635E+00  4.559192294558E+00
  4.366871009791E+00  4.180685651630E+00  4.000627906868E+00  3.826669190231E+00
  3.658761640059E+00  3.496839214899E+00  3.340818883675E+00  3.190601902071E+00
  3.046075167800E+00  2.907112647298E+00  2.773576866183E+00  2.645320455383E+00
  2.522187744120E+00  2.404016389924E+00  2.290639034457E+00  2.181884972189E+00
  2.077581816859E+00  1.977557148280E+00  1.881640298046E+00  1.789664784678E+00
  1.701471077944E+00  1.616907708048E+00  1.535832201495E+00  1.458111809799E+00
  1.383624010211E+00  1.312256757157E+00  1.243908467023E+00  1.178487054283E+00
  1.115906083905E+00  1.056079379474E+00  9.989212049438E-01  9.443463645266E-01
  8.922703426477E-01  8.426094348219E-01  7.952808695427E-01  7.502029213148E-01
  7.072950149796E-01  6.664778215101E-01  6.276733454679E-01  5.908050043353E-01
  5.557976999521E-01  5.225778822973E-01  4.910736058714E-01  4.612145789439E-01
  4.329322059370E-01  4.061596232258E-01  3.808317286380E-01  3.568852049411E-01
  3.342585376047E-01  3.128920271296E-01  2.927277962311E-01  2.737097921651E-01
  2.557837844823E-01  2.388973584913E-01  2.229999047094E-01  2.080426045725E-01
  1.939784126736E-01  1.807620357903E-01  1.683499089568E-01  1.567001688311E-01
  1.457726245976E-01  1.355287266424E-01  1.259315332277E-01  1.169456753865E-01
  1.085373202508E-01  1.006741330174E-01  9.332523774992E-02  8.646117720512E-02
  8.005387186498E-02  7.407657834747E-02  6.850384736034E-02  6.331148135396E-02
  5.847649202084E-02  5.397705778071E-02  4.979248138166E-02  4.590314773895E-02
  4.229048212489E-02  3.893690881425E-02  3.582581028122E-02  3.294148703592E-02
  3.026911817944E-02  2.779472274905E-02  2.550512191654E-02  2.338790209552E-02
  2.143137900546E-02  1.962456273340E-02  1.795712382709E-02  1.641936044664E-02
  1.500216659567E-02  1.369700144661E-02  1.249585976938E-02  1.139124346747E-02
  1.037613422030E-02  9.443967226436E-03  8.588606037963E-03  7.804318472659E-03
  7.085753587081E-03  6.427919690821E-03  5.826163379418E-03  5.276149561167E-03
  4.773842451126E-03  4.315487503961E-03  3.897594256014E-03  3.516920045939E-03
  3.170454582553E-03  2.855405328081E-03  2.569183664760E-03  2.309391812746E-03
  2.073810467516E-03  1.860387125257E-03  1.667225065336E-03  1.492572959525E-03
  1.334815078470E-03  1.192462066717E-03  1.064142258513E-03  9.485935076028E-04
  8.446555051946E-04  7.512625613234E-04  6.674368258394E-04  5.922819262775E-04
  5.249770008631E-04  4.647711058885E-04  4.109779776463E-04  3.629711300231E-04
  3.201792697411E-04  2.820820120759E-04  2.482058806877E-04  2.181205759650E-04
  1.914354970123E-04  1.677965031024E-04  1.468829010692E-04  1.284046457447E-04
  1.120997411301E-04  9.773183056180E-05  8.508796466430E-05  7.397653640179E-05
  6.422537302760E-05  5.567997520520E-05  4.820189402717E-05  4.166723709584E-05
  3.596529525139E-05  3.099728194045E-05  2.667517761333E-05  2.292067192001E-05
  1.966419684547E-05  1.684404428446E-05  1.440556190390E-05  1.230042147892E-05
  1.048595421542E-05  8.924547888894E-06  7.583100934987E-06  6.432528923123E-06
  5.447319129166E-06  4.605129197551E-06  3.886426146690E-06  3.274162224199E-06
  2.753484360302E-06  2.311474198692E-06  1.936915904193E-06  1.620089155786E-06
  1.352584931991E-06  1.127141883390E-06  9.375012643646E-07  7.782785630336E-07
  6.448501252285E-07  5.332532152875E-07  4.400980938167E-07  3.624908206382E-07
  2.979656102557E-07  2.444256776576E-07  2.000916145097E-07  1.634564301410E-07
  1.332464785741E-07  1.083875725959E-07  8.797565888458E-08  7.125149490998E-08
  5.757882908332E-08  4.642564084465E-08  3.734804740677E-08  2.997652909722E-08
  2.400416600529E-08  1.917661529246E-08  1.528359138902E-08  1.215164068971E-08
  9.638028573867E-09  7.625579890846E-09  6.018334734174E-09  4.737899624465E-09
  3.720390363321E-09  2.913877022191E-09  2.276253990418E-09  1.773468908470E-09
  1.378053823852E-09  1.067910182268E-09  8.253064456226E-10  6.360533386132E-10
  4.888270824519E-10  3.746155813063E-10  2.862664778701E-10  2.181193724757E-10
  1.657073797117E-10  1.255156441361E-10  9.478651059458E-11  7.136279540676E-11
  5.356208243078E-11  4.007620666392E-11  2.989113820975E-11  2.222316710229E-11
  1.646882814105E-11  1.216464752137E-11  8.955712311560E-12  6.571226382049E-12
  4.805308790711E-12  3.501917774056E-12  2.543206577042E-12  1.840471869364E-12
  1.327176860233E-12  9.535862265000E-13  6.826550598689E-13  4.868887926275E-13
  0.000000000000E+00  0.000000000000E+00  0.000000000000E+00  0.000000000000E+00
  0.000000000000E+00  0.000000000000E+00  0.000000000000E+00  0.000000000000E+00
  0.000000000000E+00  0.000000000000E+00  0.000000000000E+00  0.000000000000E+00
  0.000000000000E+00  0.000000000000E+00  0.000000000000E+00  0.000000000000E+00
  0.000000000000E+00  0.000000000000E+00  0.000000000000E+00  0.000000000000E+00
  0.000000000000E+00  0.000000000000E+00  0.000000000000E+00  0.000000000000E+00
  0.000000000000E+00  0.000000000000E+00  0.000000000000E+00  0.000000000000E+00
  0.000000000000E+00  0.000000000000E+00  0.000000000000E+00  0.000000000000E+00
  0.000000000000E+00  0.000000000000E+00  0.000000000000E+00  0.000000000000E+00
  0.000000000000E+00  0.000000000000E+00  0.000000000000E+00  0.000000000000E+00
  0.000000000000E+00  0.000000000000E+00  0.000000000000E+00  0.000000000000E+00
  0.000000000000E+00  0.000000000000E+00  0.000000000000E+00  0.000000000000E+00
  0.000000000000E+00  0.000000000000E+00  0.000000000000E+00  0.000000000000E+00
  0.000000000000E+00  0.000000000000E+00  0.000000000000E+00  0.000000000000E+00
  0.000000000000E+00  0.000000000000E+00  0.000000000000E+00  0.000000000000E+00
  0.000000000000E+00  0.000000000000E+00  0.000000000000E+00  0.000000000000E+00
  0.000000000000E+00  0.000000000000E+00  0.000000000000E+00  0.000000000000E+00
  0.000000000000E+00  0.000000000000E+00  0.000000000000E+00  0.000000000000E+00
  0.000000000000E+00  0.000000000000E+00  0.000000000000E+00  0.000000000000E+00
  0.000000000000E+00  0.000000000000E+00  0.000000000000E+00  0.000000000000E+00
  0.000000000000E+00  0.000000000000E+00  0.000000000000E+00  0.000000000000E+00
  0.000000000000E+00  0.000000000000E+00  0.000000000000E+00  0.000000000000E+00
  0.000000000000E+00  0.000000000000E+00  0.000000000000E+00  0.000000000000E+00
  0.000000000000E+00
</data>
</radfunc>
</valence-charge>
<pseudocore-charge matching-radius="0.332139945566"
 number-of-continuous-derivatives="4">
<annotation model-charge-form="Teter function with specified parameters" />
<radfunc>
<data npts="290">
  4.308379805656E+01  4.307461849376E+01  4.304718534325E+01  4.300144293262E+01
  4.293789827097E+01  4.285443746591E+01  4.274822184063E+01  4.262680763983E+01
  4.249056025462E+01  4.233203469062E+01  4.215381393201E+01  4.196065803050E+01
  4.172799246319E+01  4.148590065069E+01  4.120150291416E+01  4.091875860828E+01
  4.059475901668E+01  4.028920798237E+01  3.994752583173E+01  3.956580558505E+01
  3.913981565889E+01  3.876409882722E+01  3.835466173075E+01  3.790890421039E+01
  3.742411496583E+01  3.689748739913E+01  3.632614136534E+01  3.586652650982E+01
  3.537887355613E+01  3.486195164338E+01  3.431455048743E+01  3.373549500325E+01
  3.312366215897E+01  3.247800023159E+01  3.179755061810E+01  3.108147232815E+01
  3.032906924569E+01  2.953982019266E+01  2.899301979861E+01  2.842966478452E+01
  2.784977375156E+01  2.725342337275E+01  2.664075368734E+01  2.601197352458E+01
  2.536736601525E+01  2.470729414055E+01  2.403220625883E+01  2.334264154056E+01
  2.263923523117E+01  2.192272365018E+01  2.119394882351E+01  2.045386263357E+01
  1.970353036031E+01  1.894413347450E+01  1.817697153385E+01  1.740346302283E+01
  1.662514496920E+01  1.584367116443E+01  1.506080881292E+01  1.427843343577E+01
  1.349852186100E+01  1.272314314335E+01  1.195444727485E+01  1.119465157238E+01
  1.044602466231E+01  9.710868024352E+00  8.991495109579E+00  8.638448104178E+00
  8.290208109009E+00  7.947056965385E+00  7.609272521761E+00  7.277127735745E+00
  6.950889753122E+00  6.630818967320E+00  6.317168063191E+00  6.010181049363E+00
  5.710092283817E+00  5.417125497763E+00  5.131492823291E+00  4.853393830624E+00
  4.583014581206E+00  4.320526703182E+00  4.066086496131E+00  3.819834072214E+00
  3.581892541114E+00  3.352367246342E+00  3.131345060587E+00  2.918893747882E+00
  2.715061400320E+00  2.519875956962E+00  2.333344812411E+00  2.155454522262E+00
  1.986170612218E+00  1.825437497247E+00  1.673178516517E+00  1.529296089164E+00
  1.393671995136E+00  1.266167784411E+00  1.146625316861E+00  1.034867433851E+00
  9.306987614537E-01  8.339066437484E-01  7.442622032820E-01  6.615215242408E-01
  5.854269523226E-01  5.157085037015E-01  4.520853738650E-01  3.942675355035E-01
  3.419574130661E-01  2.948516201049E-01  2.526427441267E-01  2.150211624081E-01
  1.816768711221E-01  1.523013092208E-01  1.265891578377E-01  1.042400955594E-01
  8.496048978904E-02  6.846500461033E-02  5.447810608878E-02  4.273544681917E-02
  3.298511276684E-02  2.498871704653E-02  1.852232723518E-02  1.337721510399E-02
  9.360420256293E-03  6.295122032787E-03  4.020817149055E-03  2.393303803752E-03
  1.284476373988E-03  5.819382215416E-04  1.884434883082E-04  2.118197447481E-05
  1.092417863315E-05  1.010462453326E-04  2.464568252659E-04  4.124496253450E-04
  5.735066388630E-04  7.120776412763E-04  8.173614727876E-04  8.841138822039E-04
  9.115052768848E-04  9.020496344153E-04  8.606231315150E-04  7.935878085266E-04
  7.080319118204E-04  6.111345619070E-04  5.096582208362E-04  4.095682312654E-04
  3.157746319296E-04  2.319876815873E-04  1.606752005583E-04  1.031071055884E-04
  5.947048707517E-05  2.903734447583E-05  1.036670609225E-05  1.523321952563E-06
  2.963973828759E-07  4.403849650038E-06  1.167019814161E-05  2.016928052553E-05
  2.832633524288E-05  3.497739881996E-05  3.938722420339E-05  4.122983216435E-05
  4.053818391636E-05  3.763116877157E-05  3.302704407301E-05  2.735261122702E-05
  2.125678846944E-05  1.533593607235E-05  1.007644613920E-05  5.817913957202E-06
  2.737876212472E-06  8.568572261827E-07  6.051950518017E-08  1.342479391453E-07
  8.046348834041E-07  1.782137553105E-06  2.799638085860E-06  3.642666286961E-06
  4.168497790530E-06  4.313021605335E-06  4.085962503492E-06  3.556530536927E-06
  2.832668229297E-06  2.037647390180E-06  1.287777212714E-06  6.744501791759E-07
  2.527774351276E-07  3.781897109066E-08  0.000000000000E+00  0.000000000000E+00
  0.000000000000E+00  0.000000000000E+00  0.000000000000E+00  0.000000000000E+00
  0.000000000000E+00  0.000000000000E+00  0.000000000000E+00  0.000000000000E+00
  0.000000000000E+00  0.000000000000E+00  0.000000000000E+00  0.000000000000E+00
  0.000000000000E+00  0.000000000000E+00  0.000000000000E+00  0.000000000000E+00
  0.000000000000E+00  0.000000000000E+00  0.000000000000E+00  0.000000000000E+00
  0.000000000000E+00  0.000000000000E+00  0.000000000000E+00  0.000000000000E+00
  0.000000000000E+00  0.000000000000E+00  0.000000000000E+00  0.000000000000E+00
  0.000000000000E+00  0.000000000000E+00  0.000000000000E+00  0.000000000000E+00
  0.000000000000E+00  0.000000000000E+00  0.000000000000E+00  0.000000000000E+00
  0.000000000000E+00  0.000000000000E+00  0.000000000000E+00  0.000000000000E+00
  0.000000000000E+00  0.000000000000E+00  0.000000000000E+00  0.000000000000E+00
  0.000000000000E+00  0.000000000000E+00  0.000000000000E+00  0.000000000000E+00
  0.000000000000E+00  0.000000000000E+00  0.000000000000E+00  0.000000000000E+00
  0.000000000000E+00  0.000000000000E+00  0.000000000000E+00  0.000000000000E+00
  0.000000000000E+00  0.000000000000E+00  0.000000000000E+00  0.000000000000E+00
  0.000000000000E+00  0.000000000000E+00  0.000000000000E+00  0.000000000000E+00
  0.000000000000E+00  0.000000000000E+00  0.000000000000E+00  0.000000000000E+00
  0.000000000000E+00  0.000000000000E+00  0.000000000000E+00  0.000000000000E+00
  0.000000000000E+00  0.000000000000E+00  0.000000000000E+00  0.000000000000E+00
  0.000000000000E+00  0.000000000000E+00  0.000000000000E+00  0.000000000000E+00
  0.000000000000E+00  0.000000000000E+00  0.000000000000E+00  0.000000000000E+00
  0.000000000000E+00  0.000000000000E+00  0.000000000000E+00  0.000000000000E+00
  0.000000000000E+00  0.000000000000E+00  0.000000000000E+00  0.000000000000E+00
  0.000000000000E+00  0.000000000000E+00  0.000000000000E+00  0.000000000000E+00
  0.000000000000E+00  0.000000000000E+00
</data>
</radfunc>
</pseudocore-charge>
<semilocal-potentials set="scalar_relativistic">
<slps n="2" l="s" rc="1.30942325042">
<radfunc>
<data npts="290">
 -8.906277973757E+00 -8.906429921914E+00 -8.906884257100E+00 -8.907642654111E+00
 -8.908697934814E+00 -8.910087005353E+00 -8.911859775504E+00 -8.913893021637E+00
 -8.916183275676E+00 -8.918859409410E+00 -8.921882570627E+00 -8.925176344599E+00
 -8.929167520590E+00 -8.933347621233E+00 -8.938293334136E+00 -8.943247543554E+00
 -8.948969790360E+00 -8.954409919716E+00 -8.960543001104E+00 -8.967456003368E+00
 -8.975246019626E+00 -8.982181692167E+00 -8.989808223318E+00 -8.998191235309E+00
 -9.007401439787E+00 -9.017514664477E+00 -9.028611749080E+00 -9.037631532774E+00
 -9.047290478974E+00 -9.057627446624E+00 -9.068682218782E+00 -9.080495188061E+00
 -9.093106955453E+00 -9.106557828009E+00 -9.120887199237E+00 -9.136132794429E+00
 -9.152329761571E+00 -9.169509586828E+00 -9.181522190432E+00 -9.193989889855E+00
 -9.206917533180E+00 -9.220308227995E+00 -9.234163069835E+00 -9.248480844975E+00
 -9.263257706242E+00 -9.278486820721E+00 -9.294157988379E+00 -9.310257230797E+00
 -9.326766349646E+00 -9.343662454699E+00 -9.360917461848E+00 -9.378497562034E+00
 -9.396362662715E+00 -9.414465804390E+00 -9.432752555427E+00 -9.451160389957E+00
 -9.469618054394E+00 -9.488044929866E+00 -9.506350399285E+00 -9.524433229435E+00
 -9.542180980291E+00 -9.559469455404E+00 -9.576162209159E+00 -9.592110128085E+00
 -9.607151105030E+00 -9.621109825921E+00 -9.633797689576E+00 -9.639602493484E+00
 -9.645012881189E+00 -9.650001601725E+00 -9.654540619609E+00 -9.658601133407E+00
 -9.662153597740E+00 -9.665167748853E+00 -9.667612633828E+00 -9.669456643598E+00
 -9.670667549820E+00 -9.671212545741E+00 -9.671058291105E+00 -9.670170961218E+00
 -9.668516300247E+00 -9.666059678795E+00 -9.662766155872E+00 -9.658600545269E+00
 -9.653527486439E+00 -9.647511519872E+00 -9.640517167018E+00 -9.632509014741E+00
 -9.623451804232E+00 -9.613310524328E+00 -9.602050509037E+00 -9.589637539072E+00
 -9.576037947011E+00 -9.561218725696E+00 -9.545147639255E+00 -9.527793336005E+00
 -9.509125462396E+00 -9.489114776849E+00 -9.467733262298E+00 -9.444954235904E+00
 -9.420752454381E+00 -9.395104213063E+00 -9.367987436769E+00 -9.339381760422E+00
 -9.309268597223E+00 -9.277631192279E+00 -9.244454659537E+00 -9.209726000074E+00
 -9.173434099957E+00 -9.135569706187E+00 -9.096125379644E+00 -9.055095424356E+00
 -9.012475793029E+00 -8.968263969312E+00 -8.922458828012E+00 -8.875060475181E+00
 -8.826070070747E+00 -8.775489637228E+00 -8.723321858824E+00 -8.669569876087E+00
 -8.614237082157E+00 -8.557326927424E+00 -8.498842740296E+00 -8.438787572505E+00
 -8.377164078240E+00 -8.313974437004E+00 -8.249220330813E+00 -8.182902986861E+00
 -8.115023297199E+00 -8.045582027250E+00 -7.974580124976E+00 -7.902019142344E+00
 -7.827901780194E+00 -7.752232566690E+00 -7.675018678296E+00 -7.596270910376E+00
 -7.516004802326E+00 -7.434241919262E+00 -7.351011288912E+00 -7.266350988138E+00
 -7.180309869032E+00 -7.092949409239E+00 -7.004345665081E+00 -6.914591299528E+00
 -6.823797649805E+00 -6.732096791721E+00 -6.639643549635E+00 -6.546617392565E+00
 -6.453224148571E+00 -6.359697461467E+00 -6.266299906703E+00 -6.173323677296E+00
 -6.081090746826E+00 -5.989952415347E+00 -5.900288146422E+00 -5.812503610308E+00
 -5.727027860144E+00 -5.644309585739E+00 -5.564812413396E+00 -5.489009250532E+00