Pd    ONCVPSP-3.3.0  r_core=   1.41052   1.46191   1.55175
46.0000     18.0000      180424    zatom,zion,pspd
8      11   2     4   600     0    pspcod,pspxc,lmax,lloc,mmax,r2well
5.99000000  7.00000000  0.00000000    rchrg fchrg qchrg
2     4     3     0    nproj
3     1           extension_switch
4     4     0    nprojso
0                        -2.3136951562928D+00  7.8286404989521D+00
1  0.0000000000000D+00 -9.0536933505803D-10 -1.2372275426387D-10
2  1.0000000000000D-02 -5.8192042734978D-02  6.3480803356982D-02
3  2.0000000000000D-02 -1.1624115821513D-01  1.2683550225848D-01
4  3.0000000000000D-02 -1.7400362360428D-01  1.8993846504066D-01
5  4.0000000000000D-02 -2.3133414352055D-01  2.5266500223914D-01
6  5.0000000000000D-02 -2.8808511007363D-01  3.1489182926060D-01
7  6.0000000000000D-02 -3.4410591782607D-01  3.7649751902912D-01
8  7.0000000000000D-02 -3.9924235091355D-01  4.3736294141195D-01
9  8.0000000000000D-02 -4.5333605865360D-01  4.9737168635304D-01
10  9.0000000000000D-02 -5.0622413485803D-01  5.5641046779540D-01
11  1.0000000000000D-01 -5.5773881475284D-01  6.1436950565306D-01
12  1.1000000000000D-01 -6.0770730191467D-01  6.7114288329874D-01
13  1.2000000000000D-01 -6.5595173596983D-01  7.2662887826288D-01
14  1.3000000000000D-01 -7.0228930998835D-01  7.8073026408979D-01
15  1.4000000000000D-01 -7.4653254456118D-01  8.3335458156706D-01
16  1.5000000000000D-01 -7.8848972349181D-01  8.8441437783030D-01
17  1.6000000000000D-01 -8.2796549388962D-01  9.3382741214582D-01
18  1.7000000000000D-01 -8.6476163124027D-01  9.8151682748479D-01
19  1.8000000000000D-01 -8.9867796777543D-01  1.0274112873218D+00
20  1.9000000000000D-01 -9.2951348019266D-01  1.0714450774142D+00
21  2.0000000000000D-01 -9.5706753051162D-01  1.1135581726456D+00
22  2.1000000000000D-01 -9.8114125162102D-01  1.1536962693385D+00
23  2.2000000000000D-01 -1.0015390668953D+00  1.1918107837636D+00
24  2.3000000000000D-01 -1.0180703311674D+00  1.2278588178824D+00
25  2.4000000000000D-01 -1.0305510783559D+00  1.2618030936621D+00
26  2.5000000000000D-01 -1.0388058591890D+00  1.2936118575857D+00
27  2.6000000000000D-01 -1.0426696507603D+00  1.3232587572525D+00
28  2.7000000000000D-01 -1.0419898181209D+00  1.3507226922123D+00
29  2.8000000000000D-01 -1.0366281067701D+00  1.3759876414034D+00
30  2.9000000000000D-01 -1.0264626437789D+00  1.3990424697667D+00
31  3.0000000000000D-01 -1.0113899243787D+00  1.4198807167852D+00
32  3.1000000000000D-01 -9.9132676018237D-01  1.4385003698407D+00
33  3.2000000000000D-01 -9.6621216479704D-01  1.4549036253992D+00
34  3.3000000000000D-01 -9.3600915243885D-01  1.4690966411142D+00
35  3.4000000000000D-01 -9.0070642527758D-01  1.4810892819930D+00
36  3.5000000000000D-01 -8.6031992563159D-01  1.4908948637806D+00
37  3.6000000000000D-01 -8.1489422979757D-01  1.4985298967026D+00
38  3.7000000000000D-01 -7.6450376123552D-01  1.5040138326504D+00
39  3.8000000000000D-01 -7.0925380203294D-01  1.5073688188084D+00
40  3.9000000000000D-01 -6.4928128303654D-01  1.5086194605974D+00
41  4.0000000000000D-01 -5.8475533475191D-01  1.5077925966585D+00
42  4.1000000000000D-01 -5.1587758306421D-01  1.5049170884120D+00
43  4.2000000000000D-01 -4.4288217600372D-01  1.5000236265135D+00
44  4.3000000000000D-01 -3.6603553015705D-01  1.4931445562845D+00
45  4.4000000000000D-01 -2.8563578788264D-01  1.4843137239273D+00
46  4.5000000000000D-01 -2.0201197920841D-01  1.4735663450414D+00
47  4.6000000000000D-01 -1.1552288514224D-01  1.4609388966481D+00
48  4.7000000000000D-01 -2.6555602087153D-02  1.4464690336029D+00
49  4.8000000000000D-01  6.4476189905732D-02  1.4301955299303D+00
50  4.9000000000000D-01  1.5713424922465D-01  1.4121582452693D+00
51  5.0000000000000D-01  2.5095807619432D-01  1.3923981162577D+00
52  5.1000000000000D-01  3.4546748595884D-01  1.3709571723232D+00
53  5.2000000000000D-01  4.4016543567750D-01  1.3478785749954D+00
54  5.3000000000000D-01  5.3454108799328D-01  1.3232066794986D+00
55  5.4000000000000D-01  6.2807308987554D-01  1.2969871170433D+00
56  5.5000000000000D-01  7.2023304322368D-01  1.2692668959094D+00
57  5.6000000000000D-01  8.1048914108278D-01  1.2400945191016D+00
58  5.7000000000000D-01  8.9830994098250D-01  1.2095201160710D+00
59  5.8000000000000D-01  9.8316824481610D-01  1.1775955857331D+00
60  5.9000000000000D-01  1.0645450528285D+00  1.1443747477794D+00
61  6.0000000000000D-01  1.1419335577323D+00  1.1099134990766D+00
62  6.1000000000000D-01  1.2148431437159D+00  1.0742699717816D+00
63  6.2000000000000D-01  1.2828033541875D+00  1.0375046896685D+00
64  6.3000000000000D-01  1.3453677915159D+00  9.9968071907637D-01
65  6.4000000000000D-01  1.4021179118051D+00  9.6086381083610D-01
66  6.5000000000000D-01  1.4526666778776D+00  9.2112252952873D-01
67  6.6000000000000D-01  1.4966620341540D+00  8.8052836646775D-01
68  6.7000000000000D-01  1.5337901680055D+00  8.3915583287856D-01
69  6.8000000000000D-01  1.5637785234048D+00  7.9708252987613D-01
70  6.9000000000000D-01  1.5863985343383D+00  7.5438919201295D-01
71  7.0000000000000D-01  1.6014680474174D+00  7.1115970138364D-01
72  7.1000000000000D-01  1.6088534054608D+00  6.6748106952805D-01
73  7.2000000000000D-01  1.6084711664685D+00  6.2344338466977D-01
74  7.3000000000000D-01  1.6002894353833D+00  5.7913972216072D-01
75  7.4000000000000D-01  1.5843287892729D+00  5.3466601636879D-01
76  7.5000000000000D-01  1.5606627800721D+00  4.9012089264391D-01
77  7.6000000000000D-01  1.5294180027511D+00  4.4560545842408D-01
78  7.7000000000000D-01  1.4907737206909D+00  4.0122305299111D-01
79  7.8000000000000D-01  1.4449610441153D+00  3.5707895585380D-01
80  7.9000000000000D-01  1.3922616616254D+00  3.1328005421895D-01
81  8.0000000000000D-01  1.3330061291321D+00  2.6993447050053D-01
82  8.1000000000000D-01  1.2675717247832D+00  2.2715115131288D-01
83  8.2000000000000D-01  1.1963798827616D+00  1.8503941988684D-01
84  8.3000000000000D-01  1.1198932230614D+00  1.4370849433444D-01
85  8.4000000000000D-01  1.0386121984790D+00  1.0326697466135D-01
86  8.5000000000000D-01  9.5307138404326D-01  6.3822301882618D-02
87  8.6000000000000D-01  8.6383543791094D-01  2.5480193029740D-02
88  8.7000000000000D-01  7.7149476633092D-01 -1.1655943759035D-02
89  8.8000000000000D-01  6.7666092858455D-01 -4.7485609502766D-02
90  8.9000000000000D-01  5.7996182081360D-01 -8.1911825102225D-02
91  9.0000000000000D-01  4.8203668030587D-01 -1.1484174734186D-01
92  9.1000000000000D-01  3.8353095409543D-01 -1.4618728474483D-01
93  9.2000000000000D-01  2.8509107761723D-01 -1.7586570766588D-01
94  9.3000000000000D-01  1.8735921060990D-01 -2.0380024686996D-01
95  9.4000000000000D-01  9.0967978466053D-02 -2.2992067476448D-01
96  9.5000000000000D-01 -3.4647322330193D-03 -2.5416386343165D-01
97  9.6000000000000D-01 -9.5340875213643D-02 -2.7647431364835D-01
98  9.7000000000000D-01 -1.8408719465694D-01 -2.9680464917742D-01
99  9.8000000000000D-01 -2.6915997656260D-01 -3.1511607078117D-01
100  9.9000000000000D-01 -3.5004955528506D-01 -3.3137876462851D-01
101  1.0000000000000D+00 -4.2628453108831D-01 -3.4557226005173D-01
102  1.0100000000000D+00 -4.9743565691722D-01 -3.5768573195097D-01
103  1.0200000000000D+00 -5.6311935536048D-01 -3.6771824353975D-01
104  1.0300000000000D+00 -6.2300083015818D-01 -3.7567892559663D-01
105  1.0400000000000D+00 -6.7679673987864D-01 -3.8158708884096D-01
106  1.0500000000000D+00 -7.2427740582295D-01 -3.8547226665740D-01
107  1.0600000000000D+00 -7.6526853024170D-01 -3.8737418593993D-01
108  1.0700000000000D+00 -7.9965240563278D-01 -3.8734266445823D-01
109  1.0800000000000D+00 -8.2736860098573D-01 -3.8543743383224D-01
110  1.0900000000000D+00 -8.4841411534488D-01 -3.8172788780266D-01
111  1.1000000000000D+00 -8.6284299487359D-01 -3.7629275625661D-01
112  1.1100000000000D+00 -8.7076541461807D-01 -3.6921970613113D-01
113  1.1200000000000D+00 -8.7234623166639D-01 -3.6060487104095D-01
114  1.1300000000000D+00 -8.6780302167261D-01 -3.5055231216861D-01
115  1.1400000000000D+00 -8.5740361569857D-01 -3.3917341360713D-01
116  1.1500000000000D+00 -8.4146316025469D-01 -3.2658621611597D-01
117  1.1600000000000D+00 -8.2034072794760D-01 -3.1291469383644D-01
118  1.1700000000000D+00 -7.9443551080816D-01 -2.9828797911337D-01
119  1.1800000000000D+00 -7.6418263291746D-01 -2.8283954115371D-01
120  1.1900000000000D+00 -7.3004862365788D-01 -2.6670632485017D-01
121  1.2000000000000D+00 -6.9252659647672D-01 -2.5002785654283D-01
122  1.2100000000000D+00 -6.5213118054033D-01 -2.3294532380605D-01
123  1.2200000000000D+00 -6.0939325727415D-01 -2.1560063691646D-01
124  1.2300000000000D+00 -5.6485455525598D-01 -1.9813547982392D-01
125  1.2400000000000D+00 -5.1906215871720D-01 -1.8069035865770D-01
126  1.2500000000000D+00 -4.7256298708675D-01 -1.6340365605068D-01
127  1.2600000000000D+00 -4.2589830354280D-01 -1.4641069958495D-01
128  1.2700000000000D+00 -3.7959831046047D-01 -1.2984285262684D-01
129  1.2800000000000D+00 -3.3417689048815D-01 -1.1382663589547D-01
130  1.2900000000000D+00 -2.9012654989982D-01 -9.8482887760313D-02
131  1.3000000000000D+00 -2.4791361995431D-01 -8.3925971127303D-02
132  1.3100000000000D+00 -2.0797377147774D-01 -7.0263034661854D-02
133  1.3200000000000D+00 -1.7070789208063D-01 -5.7593335237880D-02
134  1.3300000000000D+00 -1.3647837583953D-01 -4.6007628566388D-02
135  1.3400000000000D+00 -1.0560587138721D-01 -3.5587634370040D-02
136  1.3500000000000D+00 -7.8366525569079D-02 -2.6405581214909D-02
137  1.3600000000000D+00 -5.4989764614729D-02 -1.8523836792311D-02
138  1.3700000000000D+00 -3.5670548620720D-02 -1.1999213236185D-02
139  1.3800000000000D+00 -2.0459084867808D-02 -6.8472358673645D-03
140  1.3900000000000D+00 -9.5277466842053D-03 -3.1285998749454D-03
141  1.4000000000000D+00 -3.2550701718046D-03 -9.7148923980398D-04
142  1.4100000000000D+00 -7.0478672522544D-04 -1.0319339771483D-04
143  1.4200000000000D+00 -2.2906514735132D-05  5.2690471897227D-05
144  1.4300000000000D+00 -9.6485472957818D-06 -1.2109621852438D-05
145  1.4400000000000D+00 -1.9120911006181D-05 -1.5837615359202D-05
146  1.4500000000000D+00  1.0573385306713D-06  3.2981137465079D-06
147  1.4600000000000D+00  7.1835666453653D-07  1.2396554047302D-06
148  1.4700000000000D+00  1.8140281778293D-06  2.3511630739010D-07
149  1.4800000000000D+00  0.0000000000000D+00  0.0000000000000D+00
150  1.4900000000000D+00  0.0000000000000D+00  0.0000000000000D+00
151  1.5000000000000D+00  0.0000000000000D+00  0.0000000000000D+00
152  1.5100000000000D+00  0.0000000000000D+00  0.0000000000000D+00
153  1.5200000000000D+00  0.0000000000000D+00  0.0000000000000D+00
154  1.5300000000000D+00  0.0000000000000D+00  0.0000000000000D+00
155  1.5400000000000D+00  0.0000000000000D+00  0.0000000000000D+00
156  1.5500000000000D+00  0.0000000000000D+00  0.0000000000000D+00
157  1.5600000000000D+00  0.0000000000000D+00  0.0000000000000D+00
158  1.5700000000000D+00  0.0000000000000D+00  0.0000000000000D+00
159  1.5800000000000D+00  0.0000000000000D+00  0.0000000000000D+00
160  1.5900000000000D+00  0.0000000000000D+00  0.0000000000000D+00
161  1.6000000000000D+00  0.0000000000000D+00  0.0000000000000D+00
162  1.6100000000000D+00  0.0000000000000D+00  0.0000000000000D+00
163  1.6200000000000D+00  0.0000000000000D+00  0.0000000000000D+00
164  1.6300000000000D+00  0.0000000000000D+00  0.0000000000000D+00
165  1.6400000000000D+00  0.0000000000000D+00  0.0000000000000D+00
166  1.6500000000000D+00  0.0000000000000D+00  0.0000000000000D+00
167  1.6600000000000D+00  0.0000000000000D+00  0.0000000000000D+00
168  1.6700000000000D+00  0.0000000000000D+00  0.0000000000000D+00
169  1.6800000000000D+00  0.0000000000000D+00  0.0000000000000D+00
170  1.6900000000000D+00  0.0000000000000D+00  0.0000000000000D+00
171  1.7000000000000D+00  0.0000000000000D+00  0.0000000000000D+00
172  1.7100000000000D+00  0.0000000000000D+00  0.0000000000000D+00
173  1.7200000000000D+00  0.0000000000000D+00  0.0000000000000D+00
174  1.7300000000000D+00  0.0000000000000D+00  0.0000000000000D+00
175  1.7400000000000D+00  0.0000000000000D+00  0.0000000000000D+00
176  1.7500000000000D+00  0.0000000000000D+00  0.0000000000000D+00
177  1.7600000000000D+00  0.0000000000000D+00  0.0000000000000D+00
178  1.7700000000000D+00  0.0000000000000D+00  0.0000000000000D+00
179  1.7800000000000D+00  0.0000000000000D+00  0.0000000000000D+00
180  1.7900000000000D+00  0.0000000000000D+00  0.0000000000000D+00
181  1.8000000000000D+00  0.0000000000000D+00  0.0000000000000D+00
182  1.8100000000000D+00  0.0000000000000D+00  0.0000000000000D+00
183  1.8200000000000D+00  0.0000000000000D+00  0.0000000000000D+00
184  1.8300000000000D+00  0.0000000000000D+00  0.0000000000000D+00
185  1.8400000000000D+00  0.0000000000000D+00  0.0000000000000D+00
186  1.8500000000000D+00  0.0000000000000D+00  0.0000000000000D+00
187  1.8600000000000D+00  0.0000000000000D+00  0.0000000000000D+00
188  1.8700000000000D+00  0.0000000000000D+00  0.0000000000000D+00
189  1.8800000000000D+00  0.0000000000000D+00  0.0000000000000D+00
190  1.8900000000000D+00  0.0000000000000D+00  0.0000000000000D+00
191  1.9000000000000D+00  0.0000000000000D+00  0.0000000000000D+00
192  1.9100000000000D+00  0.0000000000000D+00  0.0000000000000D+00
193  1.9200000000000D+00  0.0000000000000D+00  0.0000000000000D+00
194  1.9300000000000D+00  0.0000000000000D+00  0.0000000000000D+00
195  1.9400000000000D+00  0.0000000000000D+00  0.0000000000000D+00
196  1.9500000000000D+00  0.0000000000000D+00  0.0000000000000D+00
197  1.9600000000000D+00  0.0000000000000D+00  0.0000000000000D+00
198  1.9700000000000D+00  0.0000000000000D+00  0.0000000000000D+00
199  1.9800000000000D+00  0.0000000000000D+00  0.0000000000000D+00
200  1.9900000000000D+00  0.0000000000000D+00  0.0000000000000D+00
201  2.0000000000000D+00  0.0000000000000D+00  0.0000000000000D+00
202  2.0100000000000D+00  0.0000000000000D+00  0.0000000000000D+00
203  2.0200000000000D+00  0.0000000000000D+00  0.0000000000000D+00
204  2.0300000000000D+00  0.0000000000000D+00  0.0000000000000D+00
205  2.0400000000000D+00  0.0000000000000D+00  0.0000000000000D+00
206  2.0500000000000D+00  0.0000000000000D+00  0.0000000000000D+00
207  2.0600000000000D+00  0.0000000000000D+00  0.0000000000000D+00
208  2.0700000000000D+00  0.0000000000000D+00  0.0000000000000D+00
209  2.0800000000000D+00  0.0000000000000D+00  0.0000000000000D+00
210  2.0900000000000D+00  0.0000000000000D+00  0.0000000000000D+00
211  2.1000000000000D+00  0.0000000000000D+00  0.0000000000000D+00
212  2.1100000000000D+00  0.0000000000000D+00  0.0000000000000D+00
213  2.1200000000000D+00  0.0000000000000D+00  0.0000000000000D+00
214  2.1300000000000D+00  0.0000000000000D+00  0.0000000000000D+00
215  2.1400000000000D+00  0.0000000000000D+00  0.0000000000000D+00
216  2.1500000000000D+00  0.0000000000000D+00  0.0000000000000D+00
217  2.1600000000000D+00  0.0000000000000D+00  0.0000000000000D+00
218  2.1700000000000D+00  0.0000000000000D+00  0.0000000000000D+00
219  2.1800000000000D+00  0.0000000000000D+00  0.0000000000000D+00
220  2.1900000000000D+00  0.0000000000000D+00  0.0000000000000D+00
221  2.2000000000000D+00  0.0000000000000D+00  0.0000000000000D+00
222  2.2100000000000D+00  0.0000000000000D+00  0.0000000000000D+00
223  2.2200000000000D+00  0.0000000000000D+00  0.0000000000000D+00
224  2.2300000000000D+00  0.0000000000000D+00  0.0000000000000D+00
225  2.2400000000000D+00  0.0000000000000D+00  0.0000000000000D+00
226  2.2500000000000D+00  0.0000000000000D+00  0.0000000000000D+00
227  2.2600000000000D+00  0.0000000000000D+00  0.0000000000000D+00
228  2.2700000000000D+00  0.0000000000000D+00  0.0000000000000D+00
229  2.2800000000000D+00  0.0000000000000D+00  0.0000000000000D+00
230  2.2900000000000D+00  0.0000000000000D+00  0.0000000000000D+00
231  2.3000000000000D+00  0.0000000000000D+00  0.0000000000000D+00
232  2.3100000000000D+00  0.0000000000000D+00  0.0000000000000D+00
233  2.3200000000000D+00  0.0000000000000D+00  0.0000000000000D+00
234  2.3300000000000D+00  0.0000000000000D+00  0.0000000000000D+00
235  2.3400000000000D+00  0.0000000000000D+00  0.0000000000000D+00
236  2.3500000000000D+00  0.0000000000000D+00  0.0000000000000D+00
237  2.3600000000000D+00  0.0000000000000D+00  0.0000000000000D+00
238  2.3700000000000D+00  0.0000000000000D+00  0.0000000000000D+00
239  2.3800000000000D+00  0.0000000000000D+00  0.0000000000000D+00
240  2.3900000000000D+00  0.0000000000000D+00  0.0000000000000D+00
241  2.4000000000000D+00  0.0000000000000D+00  0.0000000000000D+00
242  2.4100000000000D+00  0.0000000000000D+00  0.0000000000000D+00
243  2.4200000000000D+00  0.0000000000000D+00  0.0000000000000D+00
244  2.4300000000000D+00  0.0000000000000D+00  0.0000000000000D+00
245  2.4400000000000D+00  0.0000000000000D+00  0.0000000000000D+00
246  2.4500000000000D+00  0.0000000000000D+00  0.0000000000000D+00
247  2.4600000000000D+00  0.0000000000000D+00  0.0000000000000D+00
248  2.4700000000000D+00  0.0000000000000D+00  0.0000000000000D+00
249  2.4800000000000D+00  0.0000000000000D+00  0.0000000000000D+00
250  2.4900000000000D+00  0.0000000000000D+00  0.0000000000000D+00
251  2.5000000000000D+00  0.0000000000000D+00  0.0000000000000D+00
252  2.5100000000000D+00  0.0000000000000D+00  0.0000000000000D+00
253  2.5200000000000D+00  0.0000000000000D+00  0.0000000000000D+00
254  2.5300000000000D+00  0.0000000000000D+00  0.0000000000000D+00
255  2.5400000000000D+00  0.0000000000000D+00  0.0000000000000D+00
256  2.5500000000000D+00  0.0000000000000D+00  0.0000000000000D+00
257  2.5600000000000D+00  0.0000000000000D+00  0.0000000000000D+00
258  2.5700000000000D+00  0.0000000000000D+00  0.0000000000000D+00
259  2.5800000000000D+00  0.0000000000000D+00  0.0000000000000D+00
260  2.5900000000000D+00  0.0000000000000D+00  0.0000000000000D+00
261  2.6000000000000D+00  0.0000000000000D+00  0.0000000000000D+00
262  2.6100000000000D+00  0.0000000000000D+00  0.0000000000000D+00
263  2.6200000000000D+00  0.0000000000000D+00  0.0000000000000D+00
264  2.6300000000000D+00  0.0000000000000D+00  0.0000000000000D+00
265  2.6400000000000D+00  0.0000000000000D+00  0.0000000000000D+00
266  2.6500000000000D+00  0.0000000000000D+00  0.0000000000000D+00
267  2.6600000000000D+00  0.0000000000000D+00  0.0000000000000D+00
268  2.6700000000000D+00  0.0000000000000D+00  0.0000000000000D+00
269  2.6800000000000D+00  0.0000000000000D+00  0.0000000000000D+00
270  2.6900000000000D+00  0.0000000000000D+00  0.0000000000000D+00
271  2.7000000000000D+00  0.0000000000000D+00  0.0000000000000D+00
272  2.7100000000000D+00  0.0000000000000D+00  0.0000000000000D+00
273  2.7200000000000D+00  0.0000000000000D+00  0.0000000000000D+00
274  2.7300000000000D+00  0.0000000000000D+00  0.0000000000000D+00
275  2.7400000000000D+00  0.0000000000000D+00  0.0000000000000D+00
276  2.7500000000000D+00  0.0000000000000D+00  0.0000000000000D+00
277  2.7600000000000D+00  0.0000000000000D+00  0.0000000000000D+00
278  2.7700000000000D+00  0.0000000000000D+00  0.0000000000000D+00
279  2.7800000000000D+00  0.0000000000000D+00  0.0000000000000D+00
280  2.7900000000000D+00  0.0000000000000D+00  0.0000000000000D+00
281  2.8000000000000D+00  0.0000000000000D+00  0.0000000000000D+00
282  2.8100000000000D+00  0.0000000000000D+00  0.0000000000000D+00
283  2.8200000000000D+00  0.0000000000000D+00  0.0000000000000D+00
284  2.8300000000000D+00  0.0000000000000D+00  0.0000000000000D+00
285  2.8400000000000D+00  0.0000000000000D+00  0.0000000000000D+00
286  2.8500000000000D+00  0.0000000000000D+00  0.0000000000000D+00
287  2.8600000000000D+00  0.0000000000000D+00  0.0000000000000D+00
288  2.8700000000000D+00  0.0000000000000D+00  0.0000000000000D+00
289  2.8800000000000D+00  0.0000000000000D+00  0.0000000000000D+00
290  2.8900000000000D+00  0.0000000000000D+00  0.0000000000000D+00
291  2.9000000000000D+00  0.0000000000000D+00  0.0000000000000D+00
292  2.9100000000000D+00  0.0000000000000D+00  0.0000000000000D+00
293  2.9200000000000D+00  0.0000000000000D+00  0.0000000000000D+00
294  2.9300000000000D+00  0.0000000000000D+00  0.0000000000000D+00
295  2.9400000000000D+00  0.0000000000000D+00  0.0000000000000D+00
296  2.9500000000000D+00  0.0000000000000D+00  0.0000000000000D+00
297  2.9600000000000D+00  0.0000000000000D+00  0.0000000000000D+00
298  2.9700000000000D+00  0.0000000000000D+00  0.0000000000000D+00
299  2.9800000000000D+00  0.0000000000000D+00  0.0000000000000D+00
300  2.9900000000000D+00  0.0000000000000D+00  0.0000000000000D+00
301  3.0000000000000D+00  0.0000000000000D+00  0.0000000000000D+00
302  3.0100000000000D+00  0.0000000000000D+00  0.0000000000000D+00
303  3.0200000000000D+00  0.0000000000000D+00  0.0000000000000D+00
304  3.0300000000000D+00  0.0000000000000D+00  0.0000000000000D+00
305  3.0400000000000D+00  0.0000000000000D+00  0.0000000000000D+00
306  3.0500000000000D+00  0.0000000000000D+00  0.0000000000000D+00
307  3.0600000000000D+00  0.0000000000000D+00  0.0000000000000D+00
308  3.0700000000000D+00  0.0000000000000D+00  0.0000000000000D+00
309  3.0800000000000D+00  0.0000000000000D+00  0.0000000000000D+00
310  3.0900000000000D+00  0.0000000000000D+00  0.0000000000000D+00
311  3.1000000000000D+00  0.0000000000000D+00  0.0000000000000D+00
312  3.1100000000000D+00  0.0000000000000D+00  0.0000000000000D+00
313  3.1200000000000D+00  0.0000000000000D+00  0.0000000000000D+00
314  3.1300000000000D+00  0.0000000000000D+00  0.0000000000000D+00
315  3.1400000000000D+00  0.0000000000000D+00  0.0000000000000D+00
316  3.1500000000000D+00  0.0000000000000D+00  0.0000000000000D+00
317  3.1600000000000D+00  0.0000000000000D+00  0.0000000000000D+00
318  3.1700000000000D+00  0.0000000000000D+00  0.0000000000000D+00
319  3.1800000000000D+00  0.0000000000000D+00  0.0000000000000D+00
320  3.1900000000000D+00  0.0000000000000D+00  0.0000000000000D+00
321  3.2000000000000D+00  0.0000000000000D+00  0.0000000000000D+00
322  3.2100000000000D+00  0.0000000000000D+00  0.0000000000000D+00
323  3.2200000000000D+00  0.0000000000000D+00  0.0000000000000D+00
324  3.2300000000000D+00  0.0000000000000D+00  0.0000000000000D+00
325  3.2400000000000D+00  0.0000000000000D+00  0.0000000000000D+00
326  3.2500000000000D+00  0.0000000000000D+00  0.0000000000000D+00
327  3.2600000000000D+00  0.0000000000000D+00  0.0000000000000D+00
328  3.2700000000000D+00  0.0000000000000D+00  0.0000000000000D+00
329  3.2800000000000D+00  0.0000000000000D+00  0.0000000000000D+00
330  3.2900000000000D+00  0.0000000000000D+00  0.0000000000000D+00
331  3.3000000000000D+00  0.0000000000000D+00  0.0000000000000D+00
332  3.3100000000000D+00  0.0000000000000D+00  0.0000000000000D+00
333  3.3200000000000D+00  0.0000000000000D+00  0.0000000000000D+00
334  3.3300000000000D+00  0.0000000000000D+00  0.0000000000000D+00
335  3.3400000000000D+00  0.0000000000000D+00  0.0000000000000D+00
336  3.3500000000000D+00  0.0000000000000D+00  0.0000000000000D+00
337  3.3600000000000D+00  0.0000000000000D+00  0.0000000000000D+00
338  3.3700000000000D+00  0.0000000000000D+00  0.0000000000000D+00
339  3.3800000000000D+00  0.0000000000000D+00  0.0000000000000D+00
340  3.3900000000000D+00  0.0000000000000D+00  0.0000000000000D+00
341  3.4000000000000D+00  0.0000000000000D+00  0.0000000000000D+00
342  3.4100000000000D+00  0.0000000000000D+00  0.0000000000000D+00
343  3.4200000000000D+00  0.0000000000000D+00  0.0000000000000D+00
344  3.4300000000000D+00  0.0000000000000D+00  0.0000000000000D+00
345  3.4400000000000D+00  0.0000000000000D+00  0.0000000000000D+00
346  3.4500000000000D+00  0.0000000000000D+00  0.0000000000000D+00
347  3.4600000000000D+00  0.0000000000000D+00  0.0000000000000D+00
348  3.4700000000000D+00  0.0000000000000D+00  0.0000000000000D+00
349  3.4800000000000D+00  0.0000000000000D+00  0.0000000000000D+00
350  3.4900000000000D+00  0.0000000000000D+00  0.0000000000000D+00
351  3.5000000000000D+00  0.0000000000000D+00  0.0000000000000D+00
352  3.5100000000000D+00  0.0000000000000D+00  0.0000000000000D+00
353  3.5200000000000D+00  0.0000000000000D+00  0.0000000000000D+00
354  3.5300000000000D+00  0.0000000000000D+00  0.0000000000000D+00
355  3.5400000000000D+00  0.0000000000000D+00  0.0000000000000D+00
356  3.5500000000000D+00  0.0000000000000D+00  0.0000000000000D+00
357  3.5600000000000D+00  0.0000000000000D+00  0.0000000000000D+00
358  3.5700000000000D+00  0.0000000000000D+00  0.0000000000000D+00
359  3.5800000000000D+00  0.0000000000000D+00  0.0000000000000D+00
360  3.5900000000000D+00  0.0000000000000D+00  0.0000000000000D+00
361  3.6000000000000D+00  0.0000000000000D+00  0.0000000000000D+00
362  3.6100000000000D+00  0.0000000000000D+00  0.0000000000000D+00
363  3.6200000000000D+00  0.0000000000000D+00  0.0000000000000D+00
364  3.6300000000000D+00  0.0000000000000D+00  0.0000000000000D+00
365  3.6400000000000D+00  0.0000000000000D+00  0.0000000000000D+00
366  3.6500000000000D+00  0.0000000000000D+00  0.0000000000000D+00
367  3.6600000000000D+00  0.0000000000000D+00  0.0000000000000D+00
368  3.6700000000000D+00  0.0000000000000D+00  0.0000000000000D+00
369  3.6800000000000D+00  0.0000000000000D+00  0.0000000000000D+00
370  3.6900000000000D+00  0.0000000000000D+00  0.0000000000000D+00
371  3.7000000000000D+00  0.0000000000000D+00  0.0000000000000D+00
372  3.7100000000000D+00  0.0000000000000D+00  0.0000000000000D+00
373  3.7200000000000D+00  0.0000000000000D+00  0.0000000000000D+00
374  3.7300000000000D+00  0.0000000000000D+00  0.0000000000000D+00
375  3.7400000000000D+00  0.0000000000000D+00  0.0000000000000D+00
376  3.7500000000000D+00  0.0000000000000D+00  0.0000000000000D+00
377  3.7600000000000D+00  0.0000000000000D+00  0.0000000000000D+00
378  3.7700000000000D+00  0.0000000000000D+00  0.0000000000000D+00
379  3.7800000000000D+00  0.0000000000000D+00  0.0000000000000D+00
380  3.7900000000000D+00  0.0000000000000D+00  0.0000000000000D+00
381  3.8000000000000D+00  0.0000000000000D+00  0.0000000000000D+00
382  3.8100000000000D+00  0.0000000000000D+00  0.0000000000000D+00
383  3.8200000000000D+00  0.0000000000000D+00  0.0000000000000D+00
384  3.8300000000000D+00  0.0000000000000D+00  0.0000000000000D+00
385  3.8400000000000D+00  0.0000000000000D+00  0.0000000000000D+00
386  3.8500000000000D+00  0.0000000000000D+00  0.0000000000000D+00
387  3.8600000000000D+00  0.0000000000000D+00  0.0000000000000D+00
388  3.8700000000000D+00  0.0000000000000D+00  0.0000000000000D+00
389  3.8800000000000D+00  0.0000000000000D+00  0.0000000000000D+00
390  3.8900000000000D+00  0.0000000000000D+00  0.0000000000000D+00
391  3.9000000000000D+00  0.0000000000000D+00  0.0000000000000D+00
392  3.9100000000000D+00  0.0000000000000D+00  0.0000000000000D+00
393  3.9200000000000D+00  0.0000000000000D+00  0.0000000000000D+00
394  3.9300000000000D+00  0.0000000000000D+00  0.0000000000000D+00
395  3.9400000000000D+00  0.0000000000000D+00  0.0000000000000D+00
396  3.9500000000000D+00  0.0000000000000D+00  0.0000000000000D+00
397  3.9600000000000D+00  0.0000000000000D+00  0.0000000000000D+00
398  3.9700000000000D+00  0.0000000000000D+00  0.0000000000000D+00
399  3.9800000000000D+00  0.0000000000000D+00  0.0000000000000D+00
400  3.9900000000000D+00  0.0000000000000D+00  0.0000000000000D+00
401  4.0000000000000D+00  0.0000000000000D+00  0.0000000000000D+00
402  4.0100000000000D+00  0.0000000000000D+00  0.0000000000000D+00
403  4.0200000000000D+00  0.0000000000000D+00  0.0000000000000D+00
404  4.0300000000000D+00  0.0000000000000D+00  0.0000000000000D+00
405  4.0400000000000D+00  0.0000000000000D+00  0.0000000000000D+00
406  4.0500000000000D+00  0.0000000000000D+00  0.0000000000000D+00
407  4.0600000000000D+00  0.0000000000000D+00  0.0000000000000D+00
408  4.0700000000000D+00  0.0000000000000D+00  0.0000000000000D+00
409  4.0800000000000D+00  0.0000000000000D+00  0.0000000000000D+00
410  4.0900000000000D+00  0.0000000000000D+00  0.0000000000000D+00
411  4.1000000000000D+00  0.0000000000000D+00  0.0000000000000D+00
412  4.1100000000000D+00  0.0000000000000D+00  0.0000000000000D+00
413  4.1200000000000D+00  0.0000000000000D+00  0.0000000000000D+00
414  4.1300000000000D+00  0.0000000000000D+00  0.0000000000000D+00
415  4.1400000000000D+00  0.0000000000000D+00  0.0000000000000D+00
416  4.1500000000000D+00  0.0000000000000D+00  0.0000000000000D+00
417  4.1600000000000D+00  0.0000000000000D+00  0.0000000000000D+00
418  4.1700000000000D+00  0.0000000000000D+00  0.0000000000000D+00
419  4.1800000000000D+00  0.0000000000000D+00  0.0000000000000D+00
420  4.1900000000000D+00  0.0000000000000D+00  0.0000000000000D+00
421  4.2000000000000D+00  0.0000000000000D+00  0.0000000000000D+00
422  4.2100000000000D+00  0.0000000000000D+00  0.0000000000000D+00
423  4.2200000000000D+00  0.0000000000000D+00  0.0000000000000D+00
424  4.2300000000000D+00  0.0000000000000D+00  0.0000000000000D+00
425  4.2400000000000D+00  0.0000000000000D+00  0.0000000000000D+00
426  4.2500000000000D+00  0.0000000000000D+00  0.0000000000000D+00
427  4.2600000000000D+00  0.0000000000000D+00  0.0000000000000D+00
428  4.2700000000000D+00  0.0000000000000D+00  0.0000000000000D+00
429  4.2800000000000D+00  0.0000000000000D+00  0.0000000000000D+00
430  4.2900000000000D+00  0.0000000000000D+00  0.0000000000000D+00
431  4.3000000000000D+00  0.0000000000000D+00  0.0000000000000D+00
432  4.3100000000000D+00  0.0000000000000D+00  0.0000000000000D+00
433  4.3200000000000D+00  0.0000000000000D+00  0.0000000000000D+00
434  4.3300000000000D+00  0.0000000000000D+00  0.0000000000000D+00
435  4.3400000000000D+00  0.0000000000000D+00  0.0000000000000D+00
436  4.3500000000000D+00  0.0000000000000D+00  0.0000000000000D+00
437  4.3600000000000D+00  0.0000000000000D+00  0.0000000000000D+00
438  4.3700000000000D+00  0.0000000000000D+00  0.0000000000000D+00
439  4.3800000000000D+00  0.0000000000000D+00  0.0000000000000D+00
440  4.3900000000000D+00  0.0000000000000D+00  0.0000000000000D+00
441  4.4000000000000D+00  0.0000000000000D+00  0.0000000000000D+00
442  4.4100000000000D+00  0.0000000000000D+00  0.0000000000000D+00
443  4.4200000000000D+00  0.0000000000000D+00  0.0000000000000D+00