<?xml version="1.0" encoding="UTF-8" ?>
<psml version="1.1" energy_unit="hartree" length_unit="bohr"
 uuid="bb1946d0-47ec-11e8-6e45-17b0cf5e67d9"
 xmlns="http://esl.cecam.org/PSML/ns/1.1">
<provenance creator="ONCVPSP-3.3.0+psml-3.3.0-73 (fully-relativistic)"
 date="2018-04-24">
<annotation action="semilocal-pseudopotential-generation"
 action-cont="projectors-generation" />
<input-file name="oncvpsp-input">
<![CDATA[# atsym z nc nv iexc psfile
Pd 46 6 3 4 both
# n l f
1 0 2.0
2 0 2.0
2 1 6.0
3 0 2.0
3 1 6.0
3 2 10.0
4 0 2.0
4 1 6.0
4 2 10.0
# lmax
2
# l rc ep ncon nbas qcut
0 1.4 0.0 4 7 8.8
1 1.45 0.0 4 7 8.8
2 1.55 0.0 4 7 8.8
# lloc lpopt rc5 dvloc0
4 5 1.4 0.0
# l nproj debl
0 2 3.0
1 2 1.8
2 2 1.5
# icmod fcfact
3 7.0 1.23
# epsh1 epsh2 depsh
-14.0 12.0 0.02
# rlmax drl
6.0 0.01
 0
]]>
</input-file>
</provenance>
<pseudo-atom-spec atomic-label="Pd" atomic-number="46" z-pseudo="18"
 flavor="Hamann&apos;s oncvpsp" relativity="dirac" spin-dft="no"
 core-corrections="yes">
<annotation pseudo-energy="-128.197772312" />
<exchange-correlation>
<annotation oncvpsp-xc-code="4" oncvpsp-xc-type="GGA -- Perdew-Burke-Ernzerhof" />
<libxc-info number-of-functionals="2">
<functional name="Perdew, Burke &amp; Ernzerhof (GGA)" type="exchange" id="101" />
<functional name="Perdew, Burke &amp; Ernzerhof (GGA)" type="correlation"
 id="130" />
</libxc-info>
</exchange-correlation>
<valence-configuration total-valence-charge="18">
<shell n="4" l="s" occupation="2" />
<shell n="4" l="p" occupation="6" />
<shell n="4" l="d" occupation="10" />
</valence-configuration>
</pseudo-atom-spec>
<grid npts="457">
<annotation type="sampled from oncvpsp log grid"
 recipe="r(i:1..N) = r1*exp(a*(i-1)) + r=0; resampled"
 recipe-cont="r1: scale; a: step" scale="0.108695652174E-04"
 step="0.119285708653E-01" delta="0.500000000000E-02" rmax="44.3145279533" />
<grid-data>
  0.000000000000E+00  5.000294685022E-03  1.010754857899E-02  1.516293462264E-02
  2.018903507460E-02  2.532475777372E-02  3.065021322792E-02  3.579152166903E-02
  4.080992534112E-02  4.598020733843E-02  5.119122683222E-02  5.631701633006E-02
  6.195605232738E-02  6.735150821743E-02  7.321682852214E-02  7.864914178183E-02
  8.448450483140E-02  8.967670148086E-02  9.518799695324E-02  1.010380022274E-01
  1.072475335217E-01  1.124888205185E-01  1.179862540997E-01  1.237523523875E-01
  1.298002452770E-01  1.361437043330E-01  1.427971741499E-01  1.479998075521E-01
  1.533919922845E-01  1.589806344088E-01  1.647728916001E-01  1.707761823144E-01
  1.769981952897E-01  1.834468993934E-01  1.901305538283E-01  1.970577187110E-01
  2.042372660348E-01  2.116783910330E-01  2.167891541061E-01  2.220233114428E-01
  2.273838422743E-01  2.328737977622E-01  2.384963027354E-01  2.442545574686E-01
  2.501518395041E-01  2.561915055171E-01  2.623769932263E-01  2.687118233508E-01
  2.751996016138E-01  2.818440207951E-01  2.886488628332E-01  2.956180009774E-01
  3.027554019930E-01  3.100651284188E-01  3.175513408793E-01  3.252183004535E-01
  3.330703710996E-01  3.411120221395E-01  3.493478308020E-01  3.577824848289E-01
  3.664207851426E-01  3.752676485791E-01  3.843281106864E-01  3.936073285908E-01
  4.031105839323E-01  4.128432858707E-01  4.228109741648E-01  4.278847058548E-01
  4.330193223250E-01  4.382155541929E-01  4.434741408433E-01  4.487958305334E-01
  4.541813804998E-01  4.596315570658E-01  4.651471357506E-01  4.707289013796E-01
  4.763776481961E-01  4.820941799745E-01  4.878793101342E-01  4.937338618558E-01
  4.996586681980E-01  5.056545722164E-01  5.117224270830E-01  5.178630962080E-01
  5.240774533625E-01  5.303663828029E-01  5.367307793965E-01  5.431715487493E-01
  5.496896073342E-01  5.562858826223E-01  5.629613132137E-01  5.697168489723E-01
  5.765534511600E-01  5.834720925739E-01  5.904737576848E-01  5.975594427770E-01
  6.047301560903E-01  6.119869179634E-01  6.193307609790E-01  6.267627301107E-01
  6.342838828720E-01  6.418952894665E-01  6.495980329401E-01  6.573932093354E-01
  6.652819278474E-01  6.732653109816E-01  6.813444947133E-01  6.895206286499E-01
  6.977948761937E-01  7.061684147080E-01  7.146424356845E-01  7.232181449127E-01
  7.318967626517E-01  7.406795238035E-01  7.495676780892E-01  7.585624902262E-01
  7.676652401089E-01  7.768772229902E-01  7.861997496661E-01  7.956341466621E-01
  8.051817564221E-01  8.148439374991E-01  8.246220647491E-01  8.345175295261E-01
  8.445317398804E-01  8.546661207590E-01  8.649221142081E-01  8.753011795786E-01
  8.858047937335E-01  8.964344512583E-01  9.071916646734E-01  9.180779646495E-01
  9.290949002253E-01  9.402440390280E-01  9.515269674964E-01  9.629452911063E-01
  9.745006345996E-01  9.861946422148E-01  9.980289779214E-01  1.010005325656E+00
  1.022125389564E+00  1.034390894239E+00  1.046803584970E+00  1.059365227990E+00
  1.072077610725E+00  1.084942542054E+00  1.097961852559E+00  1.111137394790E+00
  1.124471043527E+00  1.137964696049E+00  1.151620272402E+00  1.165439715671E+00
  1.179424992259E+00  1.193578092166E+00  1.207901029272E+00  1.222395841623E+00
  1.237064591723E+00  1.251909366823E+00  1.266932279225E+00  1.282135466576E+00
  1.297521092175E+00  1.313091345281E+00  1.328848441424E+00  1.344794622721E+00
  1.360932158194E+00  1.377263344092E+00  1.393790504221E+00  1.410515990272E+00
  1.427442182155E+00  1.444571488341E+00  1.461906346201E+00  1.479449222356E+00
  1.497202613024E+00  1.515169044380E+00  1.533351072913E+00  1.551751285788E+00
  1.570372301217E+00  1.589216768832E+00  1.608287370058E+00  1.627586818499E+00
  1.647117860321E+00  1.666883274644E+00  1.686885873940E+00  1.707128504427E+00
  1.727614046480E+00  1.748345415038E+00  1.769325560019E+00  1.790557466739E+00
  1.812044156340E+00  1.833788686216E+00  1.855794150450E+00  1.878063680256E+00
  1.900600444419E+00  1.923407649752E+00  1.946488541549E+00  1.969846404048E+00
  1.993484560896E+00  2.017406375627E+00  2.041615252134E+00  2.066114635160E+00
  2.090908010782E+00  2.115998906911E+00  2.141390893794E+00  2.167087584520E+00
  2.193092635534E+00  2.219409747160E+00  2.246042664126E+00  2.272995176096E+00
  2.300271118209E+00  2.327874371628E+00  2.355808864087E+00  2.384078570456E+00
  2.412687513302E+00  2.441639763461E+00  2.470939440623E+00  2.500590713910E+00
  2.530597802477E+00  2.560964976107E+00  2.591696555820E+00  2.622796914490E+00
  2.654270477464E+00  2.686121723193E+00  2.718355183872E+00  2.750975446078E+00
  2.783987151431E+00  2.817394997248E+00  2.851203737215E+00  2.885418182062E+00
  2.920043200247E+00  2.955083718650E+00  2.990544723273E+00  3.026431259953E+00
  3.062748435072E+00  3.099501416293E+00  3.136695433289E+00  3.174335778488E+00
  3.212427807830E+00  3.250976941524E+00  3.289988664822E+00  3.329468528800E+00
  3.369422151146E+00  3.409855216959E+00  3.450773479563E+00  3.492182761318E+00
  3.534088954453E+00  3.576498021907E+00  3.619415998170E+00  3.662848990148E+00
  3.706803178030E+00  3.751284816166E+00  3.796300233960E+00  3.841855836767E+00
  3.887958106809E+00  3.934613604090E+00  3.981828967339E+00  4.029610914947E+00
  4.077966245927E+00  4.126901840878E+00  4.176424662968E+00  4.226541758924E+00
  4.277260260031E+00  4.328587383152E+00  4.380530431749E+00  4.433096796930E+00
  4.486293958494E+00  4.540129485995E+00  4.594611039827E+00  4.649746372305E+00
  4.705543328773E+00  4.762009848718E+00  4.819153966903E+00  4.876983814506E+00
  4.935507620280E+00  4.994733711723E+00  5.054670516264E+00  5.115326562459E+00
  5.176710481208E+00  5.238831006983E+00  5.301696979067E+00  5.365317342816E+00
  5.429701150929E+00  5.494857564741E+00  5.560795855517E+00  5.627525405784E+00
  5.695055710653E+00  5.763396379181E+00  5.832557135731E+00  5.902547821360E+00
  5.973378395216E+00  6.045058935959E+00  6.117599643190E+00  6.191010838909E+00
  6.265302968975E+00  6.340486604603E+00  6.416572443858E+00  6.493571313185E+00
  6.571494168943E+00  6.650352098970E+00  6.730156324158E+00  6.810918200048E+00
  6.892649218448E+00  6.975361009070E+00  7.059065341179E+00  7.143774125273E+00
  7.229499414776E+00  7.316253407753E+00  7.404048448646E+00  7.492897030030E+00
  7.582811794390E+00  7.673805535923E+00  7.765891202354E+00  7.859081896782E+00
  7.953390879544E+00  8.048831570098E+00  8.145417548939E+00  8.243162559527E+00
  8.342080510241E+00  8.442185476364E+00  8.543491702080E+00  8.646013602505E+00
  8.749765765735E+00  8.854762954924E+00  8.961020110383E+00  9.068552351708E+00
  9.177374979928E+00  9.287503479688E+00  9.398953521444E+00  9.511740963701E+00
  9.625881855266E+00  9.741392437529E+00  9.858289146779E+00  9.976588616540E+00
  1.009630767994E+01  1.021746337210E+01  1.034007293256E+01  1.046415380775E+01
  1.058972365345E+01  1.071680033729E+01  1.084540194134E+01  1.097554676463E+01
  1.110725332581E+01  1.124054036572E+01  1.137542685011E+01  1.151193197231E+01
  1.165007515597E+01  1.178987605785E+01  1.193135457054E+01  1.207453082539E+01
  1.221942519529E+01  1.236605829764E+01  1.251445099721E+01  1.266462440917E+01
  1.281659990208E+01  1.297039910091E+01  1.312604389012E+01  1.328355641680E+01
  1.344295909380E+01  1.360427460293E+01  1.376752589816E+01  1.393273620894E+01
  1.409992904345E+01  1.426912819197E+01  1.444035773027E+01  1.461364202304E+01
  1.478900572731E+01  1.496647379604E+01  1.514607148159E+01  1.532782433937E+01
  1.551175823145E+01  1.569789933022E+01  1.588627412219E+01  1.607690941165E+01
  1.626983232459E+01  1.646507031249E+01  1.666265115624E+01  1.686260297011E+01
  1.706495420575E+01  1.726973365622E+01  1.747697046010E+01  1.768669410562E+01
  1.789893443488E+01  1.811372164810E+01  1.833108630788E+01  1.855105934357E+01
  1.877367205570E+01  1.899895612037E+01  1.922694359381E+01  1.945766691694E+01
  1.969115891994E+01  1.992745282698E+01  2.016658226090E+01  2.040858124803E+01
  2.065348422301E+01  2.090132603369E+01  2.115214194609E+01  2.140596764944E+01
  2.166283926124E+01  2.192279333237E+01  2.218586685236E+01  2.245209725459E+01
  2.272152242164E+01  2.299418069070E+01  2.327011085899E+01  2.354935218930E+01
  2.383194441557E+01  2.411792774856E+01  2.440734288154E+01  2.470023099612E+01
  2.499663376807E+01  2.529659337329E+01  2.560015249377E+01  2.590735432369E+01
  2.621824257558E+01  2.653286148649E+01  2.685125582432E+01  2.717347089421E+01
  2.749955254495E+01  2.782954717548E+01  2.816350174159E+01  2.850146376249E+01
  2.884348132764E+01  2.918960310357E+01  2.953987834081E+01  2.989435688090E+01
  3.025308916347E+01  3.061612623344E+01  3.098351974824E+01  3.135532198522E+01
  3.173158584904E+01  3.211236487923E+01  3.249771325778E+01  3.288768581687E+01
  3.328233804667E+01  3.368172610323E+01  3.408590681647E+01  3.449493769827E+01
  3.490887695065E+01  3.532778347406E+01  3.575171687575E+01  3.618073747826E+01
  3.661490632799E+01  3.705428520393E+01  3.749893662638E+01  3.794892386589E+01
  3.840431095228E+01  3.886516268371E+01  3.933154463592E+01  3.980352317155E+01
  4.028116544961E+01  4.076453943500E+01  4.125371390822E+01  4.174875847512E+01
  4.224974357682E+01  4.275674049974E+01  4.326982138574E+01  4.378905924237E+01
  4.431452795328E+01
</grid-data>
</grid>
<valence-charge total-charge="18" is-unscreening-charge="yes"
 rescaled-to-z-pseudo="no">
<radfunc>
<data npts="457">
  1.397809626865E+00  1.399754081860E+00  1.405755095942E+00  1.415692190260E+00
  1.429515773357E+00  1.447705794056E+00  1.470910901889E+00  1.497513200090E+00
  1.527463357182E+00  1.562441591840E+00  1.601934440428E+00  1.644939930856E+00
  1.697024481627E+00  1.751549207603E+00  1.816035803987E+00  1.880616080761E+00
  1.955199555669E+00  2.026109973089E+00  2.106072457524E+00  2.196247681474E+00
  2.297945203155E+00  2.388585694860E+00  2.488384006363E+00  2.598266282183E+00
  2.719250789279E+00  2.852456230110E+00  2.999110463867E+00  3.118731930869E+00
  3.247287307879E+00  3.385433462807E+00  3.533871783490E+00  3.693350136477E+00
  3.864664626777E+00  4.048661066751E+00  4.246236040420E+00  4.458337423712E+00
  4.685964190868E+00  4.930165302126E+00  5.102713715337E+00  5.283451005388E+00
  5.472721214831E+00  5.670875567439E+00  5.878271403945E+00  6.095270885152E+00
  6.322239432292E+00  6.559543871875E+00  6.807550249651E+00  7.066621275758E+00
  7.337113360641E+00  7.619373199126E+00  7.913733858088E+00  8.220510321711E+00
  8.539994447512E+00  8.872449286230E+00  9.218102719739E+00  9.577140373375E+00
  9.949697762957E+00  1.033585164248E+01  1.073561052648E+01  1.114890437170E+01
  1.157557341626E+01  1.201535619180E+01  1.246787674493E+01  1.293263112995E+01
  1.340897326451E+01  1.389610027547E+01  1.439303750225E+01  1.464482966823E+01
  1.489862337114E+01  1.515424174875E+01  1.541149440501E+01  1.567017697221E+01
  1.593007068931E+01  1.619094200017E+01  1.645254217552E+01  1.671460696273E+01
  1.697685626782E+01  1.723899387442E+01  1.750070720439E+01  1.776166712550E+01
  1.802152781130E+01  1.827992665895E+01  1.853648427067E+01  1.879080450487E+01
  1.904247460295E+01  1.929106539807E+01  1.953613161212E+01  1.977721224713E+01
  2.001383107751E+01  2.024549724914E+01  2.047170599145E+01  2.069193944824E+01
  2.090566763269E+01  2.111234951184E+01  2.131143422487E+01  2.150236243963E+01
  2.168456785047E+01  2.185747882020E+01  2.202052016778E+01  2.217311510255E+01
  2.231468730452E+01  2.244466314902E+01  2.256247407289E+01  2.266755907750E+01
  2.275936736258E+01  2.283736108320E+01  2.290101822012E+01  2.294983555222E+01
  2.298333171748E+01  2.300105034711E+01  2.300256325536E+01  2.298747366534E+01
  2.295541944932E+01  2.290607635984E+01  2.283916122590E+01  2.275443508686E+01
  2.265170623489E+01  2.253083313505E+01  2.239172719129E+01  2.223435532499E+01
  2.205874233243E+01  2.186497298695E+01  2.165319385163E+01  2.142361476884E+01
  2.117650999384E+01  2.091221894108E+01  2.063114651403E+01  2.033376299155E+01
  2.002060344730E+01  1.969226668217E+01  1.934941365413E+01  1.899276539464E+01
  1.862310040623E+01  1.824125154159E+01  1.784810237107E+01  1.744458305176E+01
  1.703166571846E+01  1.661035942409E+01  1.618170466369E+01  1.574676752390E+01
  1.530663350608E+01  1.486240107816E+01  1.441517501599E+01  1.396605960067E+01
  1.351615174260E+01  1.306653410686E+01  1.261826831713E+01  1.217238831662E+01
  1.172989396499E+01  1.129174494885E+01  1.085885508099E+01  1.043208705970E+01
  1.001224775425E+01  9.600084075865E+00  9.196279486013E+00  8.801451184521E+00
  8.416148010280E+00  8.040849076329E+00  7.675963149631E+00  7.321828773840E+00
  6.978715121093E+00  6.646823546522E+00  6.326289807092E+00  6.017186894673E+00
  5.719528422236E+00  5.433272492081E+00  5.158325966122E+00  4.894549051012E+00
  4.641760379154E+00  4.399743268562E+00  4.168252517055E+00  3.947019438137E+00
  3.735759664546E+00  3.534182356935E+00  3.341992551506E+00  3.158892987415E+00
  2.984585175609E+00  2.818769136531E+00  2.661142831475E+00  2.511403425209E+00
  2.369248953212E+00  2.234379398996E+00  2.106497822965E+00  1.985311340769E+00
  1.870531987507E+00  1.761877470857E+00  1.659071819708E+00  1.561845934643E+00
  1.469938046808E+00  1.383094091646E+00  1.301068003994E+00  1.223621940859E+00
  1.150526438126E+00  1.081560507206E+00  1.016511677459E+00  9.551759899785E-01
  8.973579480545E-01  8.428704293894E-01  7.915345648216E-01  7.431795880458E-01
  6.976426605113E-01  6.547686753867E-01  6.144100441850E-01  5.764264693548E-01
  5.406847058562E-01  5.070583144726E-01  4.754274093389E-01  4.456784019165E-01
  4.177037434051E-01  3.914016673514E-01  3.666759340015E-01  3.434355777414E-01
  3.215946587854E-01  3.010720200949E-01  2.817910503545E-01  2.636794536818E-01
  2.466690266173E-01  2.306954428182E-01  2.156980457697E-01  2.016196497328E-01
  1.884063490590E-01  1.760073359252E-01  1.643747264776E-01  1.534633953125E-01
  1.432308181735E-01  1.336369227030E-01  1.246439470481E-01  1.162163060941E-01
  1.083204650744E-01  1.009248202874E-01  9.399958663742E-02  8.751669170694E-02
  8.144967606185E-02  7.577359948825E-02  7.046495285953E-02  6.550157533489E-02
  6.086257659514E-02  5.652826382764E-02  5.248007318016E-02  4.870050541254E-02
  4.517306548489E-02  4.188220583180E-02  3.881327308377E-02  3.595245800840E-02
  3.328674845631E-02  3.080388510878E-02  2.849231983639E-02  2.634117648996E-02
  2.434021395687E-02  2.247979132767E-02  2.075083502879E-02  1.914480778790E-02
  1.765367930914E-02  1.626989854446E-02  1.498636745710E-02  1.379641618148E-02
  1.269377949178E-02  1.167257449894E-02  1.072727950253E-02  9.852713930270E-03
  9.044019303455E-03  8.296641171873E-03  7.606311966250E-03  6.969034720509E-03
  6.381067619787E-03  5.838909333453E-03  5.339285095304E-03  4.879133495674E-03
  4.455593952489E-03  4.065994830286E-03  3.707842177985E-03  3.378809057736E-03
  3.076725438554E-03  2.799568629623E-03  2.545454229245E-03  2.312627566365E-03
  2.099455612439E-03  1.904419342231E-03  1.726106522816E-03  1.563204910766E-03
  1.414495838120E-03  1.278848168359E-03  1.155212604212E-03  1.042616329689E-03
  9.401579693451E-04  8.470028483467E-04  7.623785374958E-04  6.855706679749E-04
  6.159190011531E-04  5.528137394036E-04  4.956920644789E-04  4.440348905970E-04
  3.973638199886E-04  3.552382892563E-04  3.172528954812E-04  2.830348915938E-04
  2.522418410899E-04  2.245594227207E-04  1.996993763162E-04  1.773975814097E-04
  1.574122608183E-04  1.395223017957E-04  1.235256878119E-04  1.092380344273E-04
  9.649122311460E-05  8.513212724749E-05  7.502142481004E-05  6.603249269890E-05
  5.805037778231E-05  5.097084015289E-05  4.469946426457E-05  3.915083387942E-05
  3.424776696936E-05  2.992060692229E-05  2.610656659306E-05  2.274912191872E-05
  1.979745198608E-05  1.720592259785E-05  1.493361053435E-05  1.294386585005E-05
  1.120390968013E-05  9.684465162187E-06  8.359419202446E-06  7.205512935058E-06
  6.202058838159E-06  5.330682580671E-06  4.575087780517E-06  3.920841957672E-06
  3.355182064616E-06  2.866838072328E-06  2.445873182047E-06  2.083539321721E-06
  1.772146671254E-06  1.504946042557E-06  1.276023018801E-06  1.080202832367E-06
  9.129650326252E-07  7.703670629802E-07  6.489759315805E-07  5.458072216725E-07
  4.582707459343E-07  3.841222041944E-07  3.214202558402E-07  2.684884670034E-07
  2.238816383442E-07  1.863560620408E-07  1.548432965102E-07  1.284270845461E-07
  1.063230750629E-07  8.786104059923E-08  7.246931226689E-08  5.966118105739E-08
  4.902303945435E-08  4.020406026613E-08  3.290723061167E-08  2.688157818044E-08
  2.191544436274E-08  1.783067472479E-08  1.447761169368E-08  1.173078733048E-08
  9.485225807955E-09  7.653275772233E-09  6.161902251071E-09  4.950376263939E-09
  3.968307877035E-09  3.173975209904E-09  2.532907912049E-09  2.016688962636E-09
  1.601943377848E-09  1.269486536389E-09  1.003608538739E-09  7.914742303086E-10
  6.226233447462E-10  3.768928053831E-10  0.000000000000E+00  0.000000000000E+00
  0.000000000000E+00  0.000000000000E+00  0.000000000000E+00  0.000000000000E+00
  0.000000000000E+00  0.000000000000E+00  0.000000000000E+00  0.000000000000E+00
  0.000000000000E+00  0.000000000000E+00  0.000000000000E+00  0.000000000000E+00
  0.000000000000E+00  0.000000000000E+00  0.000000000000E+00  0.000000000000E+00
  0.000000000000E+00  0.000000000000E+00  0.000000000000E+00  0.000000000000E+00
  0.000000000000E+00  0.000000000000E+00  0.000000000000E+00  0.000000000000E+00
  0.000000000000E+00  0.000000000000E+00  0.000000000000E+00  0.000000000000E+00
  0.000000000000E+00  0.000000000000E+00  0.000000000000E+00  0.000000000000E+00
  0.000000000000E+00  0.000000000000E+00  0.000000000000E+00  0.000000000000E+00
  0.000000000000E+00  0.000000000000E+00  0.000000000000E+00  0.000000000000E+00
  0.000000000000E+00  0.000000000000E+00  0.000000000000E+00  0.000000000000E+00
  0.000000000000E+00  0.000000000000E+00  0.000000000000E+00  0.000000000000E+00
  0.000000000000E+00  0.000000000000E+00  0.000000000000E+00  0.000000000000E+00
  0.000000000000E+00  0.000000000000E+00  0.000000000000E+00  0.000000000000E+00
  0.000000000000E+00  0.000000000000E+00  0.000000000000E+00  0.000000000000E+00
  0.000000000000E+00  0.000000000000E+00  0.000000000000E+00  0.000000000000E+00
  0.000000000000E+00  0.000000000000E+00  0.000000000000E+00  0.000000000000E+00
  0.000000000000E+00  0.000000000000E+00  0.000000000000E+00  0.000000000000E+00
  0.000000000000E+00  0.000000000000E+00  0.000000000000E+00  0.000000000000E+00
  0.000000000000E+00  0.000000000000E+00  0.000000000000E+00  0.000000000000E+00
  0.000000000000E+00
</data>
</radfunc>
</valence-charge>
<pseudocore-charge matching-radius="0.626762730111"
 number-of-continuous-derivatives="4">
<annotation model-charge-form="Teter function with specified parameters" />
<radfunc>
<data npts="290">
  1.704087658304E+02  1.703861165643E+02  1.703162382507E+02  1.702006007094E+02
  1.700398897272E+02  1.698286864976E+02  1.695596993318E+02  1.692519452402E+02
  1.689062394624E+02  1.685035339645E+02  1.680501865376E+02  1.675581148615E+02
  1.669643716820E+02  1.663453825029E+02  1.656166594216E+02  1.648904823674E+02
  1.640562554401E+02  1.632674601811E+02  1.623829854658E+02  1.613918299436E+02
  1.602818894315E+02  1.592995331860E+02  1.582253252736E+02  1.570513910872E+02
  1.557693304821E+02  1.543702155909E+02  1.528445974907E+02  1.516113974709E+02
  1.502970763991E+02  1.488971210150E+02  1.474068938588E+02  1.458216517118E+02
  1.441365686047E+02  1.423467640027E+02  1.404473368123E+02  1.384334058921E+02
  1.363001577740E+02  1.340429023138E+02  1.324669390259E+02  1.308325819917E+02
  1.291386205080E+02  1.273839177491E+02  1.255674233851E+02  1.236881871571E+02
  1.217453734246E+02  1.197382766892E+02  1.176663380883E+02  1.155291628396E+02
  1.133265386000E+02  1.110584546883E+02  1.087251220955E+02  1.063269941868E+02
  1.038647879723E+02  1.013395057924E+02  9.875245723377E+01  9.610528105360E+01
  9.339996685405E+01  9.063887620498E+01  8.782476287099E+01  8.496079175230E+01
  8.205055610269E+01  7.909809254007E+01  7.610789331928E+01  7.308491529223E+01
  7.003458494042E+01  6.696279883040E+01  6.387591881654E+01  6.232893139218E+01
  6.078076130038E+01  5.923232876542E+01  5.768457985385E+01  5.613848552129E+01
  5.459504053001E+01  5.305526223298E+01  5.152018922021E+01  4.999087982367E+01
  4.846841047765E+01  4.695387393183E+01  4.544837731485E+01  4.395304004717E+01
  4.246899160229E+01  4.099736911670E+01  3.953931484942E+01  3.809597349320E+01
  3.666848934050E+01  3.525800330837E+01  3.386564982772E+01  3.249255360356E+01
  3.113982625433E+01  2.980856283981E+01  2.849983828835E+01  2.721470373612E+01
  2.595418279211E+01  2.471926774472E+01  2.351091572689E+01  2.233004485880E+01
  2.117753038840E+01  2.005420085167E+01  1.896083427625E+01  1.789815445316E+01
  1.686682730293E+01  1.586745736351E+01  1.490058442847E+01  1.396668036496E+01
  1.306614614138E+01  1.219930909522E+01  1.136642047198E+01  1.056765326548E+01
  9.803100389833E+00  9.072773212386E+00  8.376600475808E+00  7.714427635916E+00
  7.086016639868E+00  6.491046166916E+00  5.929112351048E+00  5.399730001489E+00
  4.902334333310E+00  4.436283216096E+00  4.000859944036E+00  3.595276525688E+00
  3.218677486283E+00  2.870144169654E+00  2.548699520868E+00  2.253313324433E+00
  1.982907866589E+00  1.736363983831E+00  1.512527453499E+00  1.310215676138E+00
  1.128224593478E+00  9.653357804747E-01  8.203236449354E-01  6.919626640858E-01
  5.790345839990E-01  4.803355053617E-01  3.946827776412E-01  3.209216234768E-01
  2.579314161508E-01  2.046315353639E-01  1.599867303161E-01  1.230119242909E-01
  9.277640157506E-02  6.840732555639E-02  4.909254618433E-02  3.408266550878E-02
  2.269234160320E-02  1.430082361750E-02  8.351723768486E-03  4.352045488176E-03
  1.870500409760E-03  5.351600494278E-04  3.050059169170E-05  9.391074995252E-05
  5.117428981711E-04  1.114996213096E-03  1.774727115997E-03  2.397286585585E-03
  2.919485711523E-03  3.303790019842E-03  3.533639556410E-03  3.608985479942E-03
  3.542125106216E-03  3.353906174015E-03  3.070357884787E-03  2.719791410370E-03
  2.330396559639E-03  1.928344708532E-03  1.536391541400E-03  1.172957263269E-03
  8.516473577312E-04  5.811642856767E-04  3.655502823178E-04  2.046940532122E-04
  9.503000814376E-05  3.035786837401E-05  2.713034221116E-06  3.223825808618E-06
  2.290025440908E-05  5.330982617028E-05  8.710836589517E-05  1.184072132612E-04
  1.429715649608E-04  1.582573836452E-04  1.633053869465E-04  1.585194913913E-04
  1.453631988380E-04  1.260104609254E-04  1.029874555195E-04  7.883861877872E-05
  5.584459566321E-05  3.581210880019E-05  1.994687040411E-05  8.811439858948E-06
  2.361243254001E-06  4.463650804094E-08  9.475784170893E-07  3.960633587109E-06
  7.945829252206E-06  1.188323502296E-05  1.498162934786E-05  1.674362978547E-05
  1.698239762397E-05  1.579361112012E-05  1.349200320799E-05  1.052569192238E-05
  7.383346020964E-06  4.508776688682E-06  2.235005176099E-06  7.457026457694E-07
  6.684024860520E-08  0.000000000000E+00  0.000000000000E+00  0.000000000000E+00
  0.000000000000E+00  0.000000000000E+00  0.000000000000E+00  0.000000000000E+00
  0.000000000000E+00  0.000000000000E+00  0.000000000000E+00  0.000000000000E+00
  0.000000000000E+00  0.000000000000E+00  0.000000000000E+00  0.000000000000E+00
  0.000000000000E+00  0.000000000000E+00  0.000000000000E+00  0.000000000000E+00
  0.000000000000E+00  0.000000000000E+00  0.000000000000E+00  0.000000000000E+00
  0.000000000000E+00  0.000000000000E+00  0.000000000000E+00  0.000000000000E+00
  0.000000000000E+00  0.000000000000E+00  0.000000000000E+00  0.000000000000E+00
  0.000000000000E+00  0.000000000000E+00  0.000000000000E+00  0.000000000000E+00
  0.000000000000E+00  0.000000000000E+00  0.000000000000E+00  0.000000000000E+00
  0.000000000000E+00  0.000000000000E+00  0.000000000000E+00  0.000000000000E+00
  0.000000000000E+00  0.000000000000E+00  0.000000000000E+00  0.000000000000E+00
  0.000000000000E+00  0.000000000000E+00  0.000000000000E+00  0.000000000000E+00
  0.000000000000E+00  0.000000000000E+00  0.000000000000E+00  0.000000000000E+00
  0.000000000000E+00  0.000000000000E+00  0.000000000000E+00  0.000000000000E+00
  0.000000000000E+00  0.000000000000E+00  0.000000000000E+00  0.000000000000E+00
  0.000000000000E+00  0.000000000000E+00  0.000000000000E+00  0.000000000000E+00
  0.000000000000E+00  0.000000000000E+00  0.000000000000E+00  0.000000000000E+00
  0.000000000000E+00  0.000000000000E+00  0.000000000000E+00  0.000000000000E+00
  0.000000000000E+00  0.000000000000E+00  0.000000000000E+00  0.000000000000E+00
  0.000000000000E+00  0.000000000000E+00
</data>
</radfunc>
</pseudocore-charge>
<semilocal-potentials set="scalar_relativistic">
<slps n="4" l="s" rc="1.41051599027">
<radfunc>
<data npts="290">
 -2.184105898520E+00 -2.188957924336E+00 -2.203907940532E+00 -2.228622555796E+00
 -2.262921507256E+00 -2.307910654577E+00 -2.365068023480E+00 -2.430270767342E+00
 -2.503270737888E+00 -2.587983912199E+00 -2.682936886557E+00 -2.785508756855E+00
 -2.908597868096E+00 -3.036140541527E+00 -3.185283469901E+00 -3.332830070263E+00
 -3.501021402377E+00 -3.658781168563E+00 -3.834225445091E+00 -4.029032447449E+00
 -4.244964154475E+00 -4.434147358677E+00 -4.638980328618E+00 -4.860432640308E+00
 -5.099472607592E+00 -5.357053824252E+00 -5.634099344189E+00 -5.855185251938E+00
 -6.088057206036E+00 -6.333032028025E+00 -6.590393340333E+00 -6.860385366063E+00
 -7.143206405057E+00 -7.439002048674E+00 -7.747858210863E+00 -8.069794068172E+00
 -8.404755015861E+00 -8.752605760403E+00 -8.991561103350E+00 -9.236059405551E+00
 -9.485992588856E+00 -9.741232612072E+00 -1.000163082822E+01 -1.026701741437E+01
 -1.053720088127E+01 -1.081196766953E+01 -1.109108183784E+01 -1.137428484806E+01
 -1.166129545045E+01 -1.195180967113E+01 -1.224550090214E+01 -1.254202009296E+01
 -1.284099604038E+01 -1.314203577193E+01 -1.344472501606E+01 -1.374862875047E+01
 -1.405329181813E+01 -1.435823959886E+01 -1.466297872262E+01 -1.496699780958E+01
 -1.526976822071E+01 -1.557074480208E+01 -1.586936660553E+01 -1.616505756894E+01
 -1.645722713910E+01 -1.674527082279E+01 -1.702857065248E+01 -1.716824491600E+01
 -1.730649555644E+01 -1.744324168628E+01 -1.757840162678E+01 -1.771189291071E+01
 -1.784363228358E+01 -1.797353570345E+01 -1.810151833953E+01 -1.822749456967E+01
 -1.835137797710E+01 -1.847308134652E+01 -1.859251666018E+01 -1.870959509401E+01
 -1.882422701464E+01 -1.893632197769E+01 -1.904578872807E+01 -1.915253520318E+01
 -1.925646853978E+01 -1.935749508576E+01 -1.945552041796E+01 -1.955044936741E+01
 -1.964218605354E+01 -1.973063392912E+01 -1.981569583776E+01 -1.989727408590E+01
 -1.997527053154E+01 -2.004958669167E+01 -2.012012387049E+01 -2.018678331046E+01
 -2.024946636761E+01 -2.030807471234E+01 -2.036251055626E+01 -2.041267690451E+01
 -2.045847783242E+01 -2.049981878354E+01 -2.053660688530E+01 -2.056875127649E+01
 -2.059616343994E+01 -2.061875753211E+01 -2.063645070052E+01 -2.064916337977E+01
 -2.065681955668E+01 -2.065934699655E+01 -2.065667742419E+01 -2.064874665588E+01
 -2.063549468211E+01 -2.061686570438E+01 -2.059280813358E+01 -2.056327456085E+01
 -2.052822171519E+01 -2.048761042401E+01 -2.044140559346E+01 -2.038957622524E+01
 -2.033209548418E+01 -2.026894082811E+01 -2.020009420741E+01 -2.012554233704E+01
 -2.004527703953E+01 -1.995929565281E+01 -1.986760149321E+01 -1.977020436131E+01
 -1.966712107619E+01 -1.955837602330E+01 -1.944400170139E+01 -1.932403925551E+01
 -1.919853898561E+01 -1.906756082347E+01 -1.893117477491E+01 -1.878946132836E+01
 -1.864251183592E+01 -1.849042887724E+01 -1.833332662124E+01 -1.817133120405E+01
 -1.800458114492E+01 -1.783322782400E+01 -1.765743604725E+01 -1.747738472467E+01
 -1.729326768823E+01 -1.710529467572E+01 -1.691369250655E+01 -1.671870647501E+01
 -1.652060198669E+01 -1.631966646313E+01 -1.611621153990E+01 -1.591057558250E+01
 -1.570312654337E+01 -1.549426518077E+01 -1.528442865614E+01 -1.507409451981E+01