<?xml version="1.0" encoding="UTF-8" ?>
<psml version="1.1" energy_unit="hartree" length_unit="bohr"
 uuid="a40e52f0-44bd-11e8-56e1-6c7b7f5d415a"
 xmlns="http://esl.cecam.org/PSML/ns/1.1">
<provenance creator="ONCVPSP-3.3.0+psml-3.3.0-73 (fully-relativistic)"
 date="2018-04-20">
<annotation action="semilocal-pseudopotential-generation"
 action-cont="projectors-generation" />
<input-file name="oncvpsp-input">
<![CDATA[# atsym z nc nv iexc psfile
Tc 43 6 4 4 both
# n l f
1 0 2.0
2 0 2.0
2 1 6.0
3 0 2.0
3 1 6.0
3 2 10.0
4 0 2.0
4 1 6.0
4 2 5.0
5 0 2.0
# lmax
2
# l rc ep ncon nbas qcut
0 1.4 0.0 4 8 8.4
1 1.4 0.0 4 8 9.0
2 1.35 0.0 4 8 9.2
# lloc lpopt rc5 dvloc0
4 5 1.2 0.0
# l nproj debl
0 2 1.0
1 2 2.0
2 2 1.5
# icmod fcfact rcfact
3 5.0 1.28
# epsh1 epsh2 depsh
-12.0 12.0 0.02
# rlmax drl
6.0 0.01
 0
]]>
</input-file>
</provenance>
<pseudo-atom-spec atomic-label="Tc" atomic-number="43" z-pseudo="15"
 flavor="Hamann&apos;s oncvpsp" relativity="dirac" spin-dft="no"
 core-corrections="yes">
<annotation pseudo-energy="-80.7159608880" />
<exchange-correlation>
<annotation oncvpsp-xc-code="4" oncvpsp-xc-type="GGA -- Perdew-Burke-Ernzerhof" />
<libxc-info number-of-functionals="2">
<functional name="Perdew, Burke &amp; Ernzerhof (GGA)" type="exchange" id="101" />
<functional name="Perdew, Burke &amp; Ernzerhof (GGA)" type="correlation"
 id="130" />
</libxc-info>
</exchange-correlation>
<valence-configuration total-valence-charge="15">
<shell n="4" l="s" occupation="2" />
<shell n="4" l="p" occupation="6" />
<shell n="4" l="d" occupation="5" />
<shell n="5" l="s" occupation="2" />
</valence-configuration>
</pseudo-atom-spec>
<grid npts="457">
<annotation type="sampled from oncvpsp log grid"
 recipe="r(i:1..N) = r1*exp(a*(i-1)) + r=0; resampled"
 recipe-cont="r1: scale; a: step" scale="0.116279069767E-04"
 step="0.119285708653E-01" delta="0.500000000000E-02" rmax="44.1318799948" />
<grid-data>
  0.000000000000E+00  5.039441559062E-03  1.006588903305E-02  1.510043866069E-02
  2.010582340092E-02  2.522037856629E-02  3.052388447908E-02  3.564400236410E-02
  4.112942271229E-02  4.634018239958E-02  5.159199851370E-02  5.675791737359E-02
  6.244110089536E-02  6.787879734231E-02  7.291505605902E-02  7.832497934927E-02
  8.413629120847E-02  8.930708755962E-02  9.479566752734E-02  1.006215612614E-01
  1.068054991833E-01  1.120251835497E-01  1.174999587597E-01  1.232422913408E-01
  1.292652570711E-01  1.355825707545E-01  1.422086174500E-01  1.473898075375E-01
  1.527597676953E-01  1.583253755208E-01  1.640937591880E-01  1.700723065768E-01
  1.762686747350E-01  1.826907996852E-01  1.893469065890E-01  1.962455202813E-01
  2.033954761885E-01  2.108059316443E-01  2.158956300580E-01  2.211082141501E-01
  2.264466508725E-01  2.319139788112E-01  2.375133099156E-01  2.432478312702E-01
  2.491208069084E-01  2.551355796704E-01  2.612955731059E-01  2.676042934230E-01
  2.740653314834E-01  2.806823648468E-01  2.874591598636E-01  2.943995738194E-01
  3.015075571297E-01  3.087871555890E-01  3.162425126735E-01  3.238778718995E-01
  3.316975792387E-01  3.397060855918E-01  3.479079493223E-01  3.563078388508E-01
  3.649105353120E-01  3.737209352766E-01  3.827440535379E-01  3.919850259665E-01
  4.014491124334E-01  4.111416998040E-01  4.210683050041E-01  4.261211246641E-01
  4.312345781601E-01  4.364093930980E-01  4.416463058152E-01  4.469460614850E-01
  4.523094142228E-01  4.577371271935E-01  4.632299727198E-01  4.687887323924E-01
  4.744141971812E-01  4.801071675473E-01  4.858684535579E-01  4.916988750006E-01
  4.975992615006E-01  5.035704526386E-01  5.096132980703E-01  5.157286576471E-01
  5.219174015389E-01  5.281804103573E-01  5.345185752816E-01  5.409327981850E-01
  5.474239917632E-01  5.539930796644E-01  5.606409966204E-01  5.673686885798E-01
  5.741771128428E-01  5.810672381969E-01  5.880400450552E-01  5.950965255959E-01
  6.022376839031E-01  6.094645361099E-01  6.167781105432E-01  6.241794478697E-01
  6.316696012442E-01  6.392496364591E-01  6.469206320966E-01  6.546836796818E-01
  6.625398838379E-01  6.704903624440E-01  6.785362467933E-01  6.866786817549E-01
  6.949188259359E-01  7.032578518471E-01  7.116969460693E-01  7.202373094221E-01
  7.288801571352E-01  7.376267190208E-01  7.464782396491E-01  7.554359785249E-01
  7.645012102672E-01  7.736752247904E-01  7.829593274879E-01  7.923548394177E-01
  8.018630974907E-01  8.114854546606E-01  8.212232801165E-01  8.310779594779E-01
  8.410508949917E-01  8.511435057316E-01  8.613572278003E-01  8.716935145340E-01
  8.821538367084E-01  8.927396827489E-01  9.034525589418E-01  9.142939896491E-01
  9.252655175249E-01  9.363687037352E-01  9.476051281801E-01  9.589763897182E-01
  9.704841063948E-01  9.821299156716E-01  9.939154746596E-01  1.005842460356E+00
  1.017912569880E+00  1.030127520718E+00  1.042489050967E+00  1.054998919579E+00
  1.067658906614E+00  1.080470813493E+00  1.093436463255E+00  1.106557700814E+00
  1.119836393224E+00  1.133274429942E+00  1.146873723102E+00  1.160636207779E+00
  1.174563842272E+00  1.188658608379E+00  1.202922511680E+00  1.217357581820E+00
  1.231965872802E+00  1.246749463276E+00  1.261710456835E+00  1.276850982317E+00
  1.292173194105E+00  1.307679272434E+00  1.323371423703E+00  1.339251880788E+00
  1.355322903357E+00  1.371586778197E+00  1.388045819536E+00  1.404702369370E+00
  1.421558797803E+00  1.438617503376E+00  1.455880913417E+00  1.473351484378E+00
  1.491031702190E+00  1.508924082617E+00  1.527031171608E+00  1.545355545667E+00
  1.563899812215E+00  1.582666609962E+00  1.601658609281E+00  1.620878512593E+00
  1.640329054744E+00  1.660013003401E+00  1.679933159442E+00  1.700092357355E+00
  1.720493465643E+00  1.741139387231E+00  1.762033059878E+00  1.783177456596E+00
  1.804575586075E+00  1.826230493108E+00  1.848145259026E+00  1.870323002134E+00
  1.892766878160E+00  1.915480080697E+00  1.938465841666E+00  1.961727431766E+00
  1.985268160947E+00  2.009091378878E+00  2.033200475425E+00  2.057598881130E+00
  2.082290067704E+00  2.107277548516E+00  2.132564879098E+00  2.158155657647E+00
  2.184053525539E+00  2.210262167846E+00  2.236785313860E+00  2.263626737626E+00
  2.290790258478E+00  2.318279741579E+00  2.346099098478E+00  2.374252287660E+00
  2.402743315112E+00  2.431576234893E+00  2.460755149712E+00  2.490284211509E+00
  2.520167622047E+00  2.550409633511E+00  2.581014549113E+00  2.611986723703E+00
  2.643330564387E+00  2.675050531160E+00  2.707151137534E+00  2.739636951184E+00
  2.772512594598E+00  2.805782745734E+00  2.839452138682E+00  2.873525564347E+00
  2.908007871119E+00  2.942903965572E+00  2.978218813159E+00  3.013957438917E+00
  3.050124928184E+00  3.086726427322E+00  3.123767144450E+00  3.161252350183E+00
  3.199187378386E+00  3.237577626926E+00  3.276428558449E+00  3.315745701151E+00
  3.355534649564E+00  3.395801065359E+00  3.436550678144E+00  3.477789286281E+00
  3.519522757717E+00  3.561757030809E+00  3.604498115179E+00  3.647752092561E+00
  3.691525117672E+00  3.735823419084E+00  3.780653300113E+00  3.826021139714E+00
  3.871933393391E+00  3.918396594112E+00  3.965417353241E+00  4.013002361480E+00
  4.061158389818E+00  4.109892290495E+00  4.159210997981E+00  4.209121529957E+00
  4.259630988317E+00  4.310746560176E+00  4.362475518898E+00  4.414825225125E+00
  4.467803127827E+00  4.521416765361E+00  4.575673766545E+00  4.630581851744E+00
  4.686148833964E+00  4.742382619972E+00  4.799291211412E+00  4.856882705949E+00
  4.915165298420E+00  4.974147282001E+00  5.033837049385E+00  5.094243093978E+00
  5.155374011105E+00  5.217238499239E+00  5.279845361230E+00  5.343203505564E+00
  5.407321947631E+00  5.472209811003E+00  5.537876328735E+00  5.604330844679E+00
  5.671582814816E+00  5.739641808593E+00  5.808517510297E+00  5.878219720420E+00
  5.948758357065E+00  6.020143457350E+00  6.092385178838E+00  6.165493800984E+00
  6.239479726596E+00  6.314353483315E+00  6.390125725115E+00  6.466807233816E+00
  6.544408920622E+00  6.622941827670E+00  6.702417129602E+00  6.782846135157E+00
  6.864240288779E+00  6.946611172244E+00  7.029970506311E+00  7.114330152387E+00
  7.199702114215E+00  7.286098539586E+00  7.373531722061E+00  7.462014102726E+00
  7.551558271958E+00  7.642176971222E+00  7.733883094877E+00  7.826689692015E+00
  7.920609968319E+00  8.015657287939E+00  8.111845175394E+00  8.209187317499E+00
  8.307697565309E+00  8.407389936093E+00  8.508278615326E+00  8.610377958710E+00
  8.713702494214E+00  8.818266924145E+00  8.924086127235E+00  9.031175160761E+00
  9.139549262691E+00  9.249223853843E+00  9.360214540089E+00  9.472537114570E+00
  9.586207559945E+00  9.701242050664E+00  9.817656955272E+00  9.935468838736E+00
  1.005469446480E+01  1.017535079838E+01  1.029745500796E+01  1.042102446805E+01
  1.054607676167E+01  1.067262968281E+01  1.080070123900E+01  1.093030965387E+01
  1.106147336972E+01  1.119421105016E+01  1.132854158276E+01  1.146448408175E+01
  1.160205789073E+01  1.174128258542E+01  1.188217797645E+01  1.202476411216E+01
  1.216906128151E+01  1.231509001689E+01  1.246287109709E+01  1.261242555025E+01
  1.276377465686E+01  1.291693995274E+01  1.307194323217E+01  1.322880655096E+01
  1.338755222957E+01  1.354820285633E+01  1.371078129060E+01  1.387531066609E+01
  1.404181439408E+01  1.421031616681E+01  1.438083996081E+01  1.455341004034E+01
  1.472805096083E+01  1.490478757236E+01  1.508364502322E+01  1.526464876350E+01
  1.544782454866E+01  1.563319844325E+01  1.582079682457E+01  1.601064638646E+01
  1.620277414310E+01  1.639720743282E+01  1.659397392201E+01  1.679310160908E+01
  1.699461882838E+01  1.719855425432E+01  1.740493690538E+01  1.761379614824E+01
  1.782516170202E+01  1.803906364244E+01  1.825553240615E+01  1.847459879503E+01
  1.869629398057E+01  1.892064950833E+01  1.914769730243E+01  1.937746967006E+01
  1.960999930610E+01  1.984531929778E+01  2.008346312935E+01  2.032446468690E+01
  2.056835826315E+01  2.081517856230E+01  2.106496070505E+01  2.131774023351E+01
  2.157355311631E+01  2.183243575371E+01  2.209442498275E+01  2.235955808255E+01
  2.262787277954E+01  2.289940725289E+01  2.317420013993E+01  2.345229054161E+01
  2.373371802811E+01  2.401852264444E+01  2.430674491618E+01  2.459842585517E+01
  2.489360696543E+01  2.519233024902E+01  2.549463821201E+01  2.580057387055E+01
  2.611018075700E+01  2.642350292608E+01  2.674058496119E+01  2.706147198073E+01
  2.738620964450E+01  2.771484416023E+01  2.804742229015E+01  2.838399135764E+01
  2.872459925393E+01  2.906929444497E+01  2.941812597831E+01  2.977114349005E+01
  3.012839721193E+01  3.048993797848E+01  3.085581723422E+01  3.122608704103E+01
  3.160080008552E+01  3.198000968655E+01  3.236376980279E+01  3.275213504042E+01
  3.314516066091E+01  3.354290258884E+01  3.394541741990E+01  3.435276242894E+01
  3.476499557809E+01  3.518217552503E+01  3.560436163133E+01  3.603161397090E+01
  3.646399333855E+01  3.690156125862E+01  3.734437999372E+01  3.779251255364E+01
  3.824602270429E+01  3.870497497674E+01  3.916943467646E+01  3.963946789258E+01
  4.011514150729E+01  4.059652320537E+01  4.108368148384E+01  4.157668566165E+01
  4.207560588959E+01  4.258051316026E+01  4.309147931818E+01  4.360857707000E+01
  4.413187999484E+01
</grid-data>
</grid>
<valence-charge total-charge="15" is-unscreening-charge="yes"
 rescaled-to-z-pseudo="no">
<radfunc>
<data npts="457">
  9.484327370486E-02  9.543891731260E-02  9.722053735889E-02  1.001963651119E-01
  1.043410026634E-01  1.098035371607E-01  1.167864973327E-01  1.248115226313E-01
  1.348211590423E-01  1.456966217441E-01  1.580214008213E-01  1.714971532582E-01
  1.878938267106E-01  2.051473191865E-01  2.225143517094E-01  2.426810001209E-01
  2.661186098816E-01  2.885471404463E-01  3.140070819518E-01  3.429308492268E-01
  3.758174870386E-01  4.053647467401E-01  4.381521739439E-01  4.745583620685E-01
  5.150095734724E-01  5.599860483002E-01  6.100291071320E-01  6.512506776429E-01
  6.959497515085E-01  7.444390791903E-01  7.970608185301E-01  8.541891767997E-01
  9.162332132464E-01  9.836397869435E-01  1.056896625480E+00  1.136535478223E+00
  1.223135303064E+00  1.317325417121E+00  1.384670506266E+00  1.455907365833E+00
  1.531263464785E+00  1.610977978159E+00  1.695302009507E+00  1.784498741034E+00
  1.878843494958E+00  1.978623687346E+00  2.084138653167E+00  2.195699318613E+00
  2.313627693867E+00  2.438256156420E+00  2.569926491874E+00  2.708988655816E+00
  2.855799217061E+00  3.010719439196E+00  3.174112954176E+00  3.346342978769E+00
  3.527769022076E+00  3.718743030367E+00  3.919604914236E+00  4.130677402967E+00
  4.352260172106E+00  4.584623193147E+00  4.827999259125E+00  5.082575647321E+00
  5.348484890665E+00  5.625794643253E+00  5.914496643172E+00  6.063093480935E+00
  6.214494798153E+00  6.368672769564E+00  6.525592446849E+00  6.685211321847E+00
  6.847478881260E+00  7.012336154226E+00  7.179715254376E+00  7.349538918185E+00
  7.521720041628E+00  7.696161217427E+00  7.872754275367E+00  8.051379828459E+00
  8.231906827940E+00  8.414192130406E+00  8.598080080611E+00  8.783402113761E+00
  8.969976381399E+00  9.157607405237E+00  9.346085763571E+00  9.535187815172E+00
  9.724675465779E+00  9.914295982557E+00  1.010378186210E+01  1.029285075772E+01
  1.048120547192E+01  1.066853402010E+01  1.085450977155E+01  1.103879167387E+01
  1.122102456689E+01  1.140083959204E+01  1.157785470317E+01  1.175167528414E+01
  1.192189487873E+01  1.208809603761E+01  1.224985128678E+01  1.240672422135E+01
  1.255827072763E+01  1.270404033600E+01  1.284357770581E+01  1.297642424279E+01
  1.310211984821E+01  1.322020479766E+01  1.333022174637E+01  1.343171785598E+01
  1.352424703675E+01  1.360737229694E+01  1.368066818989E+01  1.374372334741E+01
  1.379614308605E+01  1.383755207134E+01  1.386759702319E+01  1.388594944342E+01
  1.389230834540E+01  1.388640296316E+01  1.386799541671E+01  1.383688330799E+01
  1.379290222127E+01  1.373592810040E+01  1.366587947461E+01  1.358271950397E+01
  1.348645781554E+01  1.337715210112E+01  1.325490944822E+01  1.311988737666E+01
  1.297229455448E+01  1.281239116882E+01  1.264048892926E+01  1.245695068427E+01
  1.226218963418E+01  1.205666812793E+01  1.184089603473E+01  1.161542868654E+01
  1.138086439171E+01  1.113784152580E+01  1.088703521085E+01  1.062915360011E+01
  1.036493379135E+01  1.009513739757E+01  9.820545810219E+00  9.541955195512E+00
  9.260171270216E+00  8.976003908420E+00  8.690261635391E+00  8.403746068646E+00
  8.117246369552E+00  7.831533770933E+00  7.547356247338E+00  7.265433394509E+00
  6.986451583350E+00  6.711059451307E+00  6.439863790293E+00  6.173425884597E+00
  5.912258345535E+00  5.656822482096E+00  5.407526238544E+00  5.164722721050E+00
  4.928709326471E+00  4.699727362623E+00  4.477961795135E+00  4.263541466256E+00
  4.056542419020E+00  3.856997584175E+00  3.664908972114E+00  3.480251259868E+00
  3.302972529652E+00  3.132997113856E+00  2.970227659922E+00  2.814547269666E+00
  2.665821577521E+00  2.523900768231E+00  2.388621524743E+00  2.259808898609E+00
  2.137278096490E+00  2.020836177522E+00  1.910283657389E+00  1.805416016044E+00
  1.706025107001E+00  1.611900467036E+00  1.522830526031E+00  1.438603717441E+00
  1.359009490615E+00  1.283839226838E+00  1.212887061518E+00  1.145950615479E+00
  1.082831638727E+00  1.023336570431E+00  9.672770191703E-01  9.144701677516E-01
  8.647391070087E-01  8.179131032238E-01  7.738278038828E-01  7.323253863460E-01
  6.932546541772E-01  6.564710857226E-01  6.218368394528E-01  5.892207204476E-01
  5.584981122519E-01  5.295508781471E-01  5.022672356852E-01  4.765416081241E-01
  4.522744561760E-01  4.293720932581E-01  4.077464872028E-01  3.873150511575E-01
  3.680004261800E-01  3.497302578183E-01  3.324369687499E-01  3.160575293598E-01
  3.005332279395E-01  2.858094420113E-01  2.718354121078E-01  2.585640191784E-01
  2.459515666397E-01  2.339575679460E-01  2.225445404234E-01  2.116778059858E-01
  2.013252992367E-01  1.914573833533E-01  1.820466740512E-01  1.730678718378E-01
  1.644976026799E-01  1.563142671369E-01  1.484978979465E-01  1.410300259862E-01
  1.338935544887E-01  1.270726413376E-01  1.205525892383E-01  1.143197435217E-01
  1.083613973154E-01  1.026657037955E-01  9.722159521585E-02  9.201870840140E-02
  8.704731638420E-02  8.229826585814E-02  7.776292012812E-02  7.343310723208E-02
  6.930107291985E-02  6.535943818042E-02  6.160116101816E-02  5.801950218933E-02
  5.460799462177E-02  5.136041625298E-02  4.827076603413E-02  4.533324286028E-02
  4.254222719919E-02  3.989226520288E-02  3.737805509673E-02  3.499443565141E-02
  3.273637655177E-02  3.059897048506E-02  2.857742677901E-02  2.666706642491E-02
  2.486331832690E-02  2.316171663148E-02  2.155789898653E-02  2.004760559118E-02
  1.862667890274E-02  1.729106387351E-02  1.603680859754E-02  1.486006525533E-02
  1.375709125290E-02  1.272425046092E-02  1.175801446902E-02  1.085496378070E-02
  1.001178888402E-02  9.225291143807E-03  8.492383471005E-03  7.810090734582E-03
  7.175549890607E-03  6.586009811882E-03  6.038830809380E-03  5.531483843974E-03
  5.061549433239E-03  4.626716263613E-03  4.224779522790E-03  3.853638970985E-03
  3.511296772643E-03  3.195855112363E-03  2.905513620214E-03  2.638566632481E-03
  2.393400314077E-03  2.168489668556E-03  1.962395460969E-03  1.773761077645E-03
  1.601309345636E-03  1.443839332840E-03  1.300223148059E-03  1.169402758257E-03
  1.050386838309E-03  9.422476665058E-04  8.441180771095E-04  7.551884793653E-04
  6.747039505765E-04  6.019614092233E-04  5.363068726124E-04  4.771328022448E-04
  4.238755389554E-04  3.760128289332E-04  3.330614409557E-04  2.945748745534E-04
  2.601411583541E-04  2.293807375102E-04  2.019444488776E-04  1.775115824608E-04
  1.557880275542E-04  1.365045019677E-04  1.194148627169E-04  1.042944965618E-04
  9.093878879025E-05  7.916166864655E-05  6.879422980075E-05  5.968342423630E-05
  5.169082789804E-05  4.469147639306E-05  3.857276897270E-05  3.323343894916E-05
  2.858258861690E-05  2.453878666184E-05  2.102922595334E-05  1.798893952861E-05
  1.536007250075E-05  1.309120755115E-05  1.113674160879E-05  9.456311273314E-06
  8.014264507605E-06  6.779176109762E-06  5.723404473578E-06  4.822687161321E-06
  4.055772841774E-06  3.404087189446E-06  2.851430396523E-06  2.383704016083E-06
  1.988664932010E-06  1.655704336398E-06  1.375649687483E-06  1.140587718780E-06
  9.437066717634E-07  7.791560285118E-07  6.419221262719E-07  5.277181413774E-07
  4.328870346028E-07  3.543161527508E-07  2.893622813480E-07  2.357860400650E-07
  1.916946053457E-07  1.554918333002E-07  1.258349398607E-07  1.015969743137E-07
  8.183439645628E-08  6.575913674446E-08  5.271458291483E-08  4.215499574616E-08
  3.362791101180E-08  2.675913442169E-08  2.123998166159E-08  1.681645673035E-08
  1.328009889103E-08  1.046026193997E-08  8.217619415632E-09  6.438716072631E-09
  5.031409692020E-09  3.921068334556E-09  3.047406710264E-09  2.361861665502E-09
  1.825421095911E-09  1.406833085636E-09  1.081132941657E-09  8.284352147419E-10
  6.329459392024E-10  4.821573322128E-10  3.661932064234E-10  2.772784905610E-10
  2.093106328678E-10  1.575143813153E-10  1.181645813574E-10  8.836428537984E-11
  6.586769765194E-11  4.893934564024E-11  3.624242558327E-11  2.672156455681E-11
  1.960649341392E-11  1.437643228222E-11  1.050521200995E-11  7.649682815811E-12
  5.550717330931E-12  4.013320127871E-12  2.891273629020E-12  2.075327965269E-12
  1.484149469479E-12  1.057408671444E-12  7.505214948216E-13  5.306631272862E-13
  3.737579316088E-13  2.622150519447E-13  1.832315368101E-13  1.275256926790E-13
  8.839530823077E-14  6.102021428910E-14  4.194786902945E-14  2.871548417932E-14
  1.957359436802E-14  1.328467973820E-14  8.977083164864E-15  6.039491517140E-15
  4.045046363179E-15  2.697002717056E-15  1.789989493581E-15  1.182515860552E-15
  7.775471734546E-16  5.088448573354E-16  3.314043420660E-16  2.147930130579E-16
  1.385306719171E-16  8.890167383977E-17  5.676572624364E-17  3.606188730612E-17
  2.279135398902E-17  1.432927444693E-17  8.961558140313E-18  5.574690253072E-18
  3.449117752463E-18  2.122350684897E-18  1.298732039968E-18  7.902897408085E-19
  4.781765356858E-19  2.876707469356E-19  1.720595176347E-19  1.023073740848E-19
  6.047135802654E-20  3.552842808715E-20  2.074695267814E-20  1.204073161941E-20
  6.944475856404E-21  3.979985709990E-21  2.266449300342E-21  1.282329299119E-21
  7.207893703979E-22  4.024743367318E-22  2.232309106794E-22  1.229763511168E-22
  6.728281740648E-23  3.655665160399E-23  0.000000000000E+00  0.000000000000E+00
  0.000000000000E+00  0.000000000000E+00  0.000000000000E+00  0.000000000000E+00
  0.000000000000E+00
</data>
</radfunc>
</valence-charge>
<pseudocore-charge matching-radius="0.720237309422"
 number-of-continuous-derivatives="4">
<annotation model-charge-form="Teter function with specified parameters" />
<radfunc>
<data npts="290">
  6.876445448477E+01  6.875796286542E+01  6.873855834066E+01  6.870618862184E+01
  6.866119128215E+01  6.860203809144E+01  6.852667036082E+01  6.844039838342E+01
  6.833329855853E+01  6.821756401144E+01  6.808718548075E+01  6.794556210511E+01
  6.777452619017E+01  6.759604189551E+01  6.741788883338E+01  6.721286533309E+01
  6.697701532422E+01  6.675369241751E+01  6.650291167589E+01  6.622141596875E+01
  6.590559371033E+01  6.562554921933E+01  6.531875091302E+01  6.498278416676E+01
  6.461504605223E+01  6.421273704945E+01  6.377285393361E+01  6.341635909891E+01
  6.303549262637E+01  6.262875345169E+01  6.219457345867E+01  6.173131864344E+01
  6.123729115519E+01  6.071073236555E+01  6.014982713649E+01  5.955270947427E+01
  5.891746977591E+01  5.824216389274E+01  5.776872991408E+01  5.727602840173E+01
  5.676347330870E+01  5.623048090907E+01  5.567647235086E+01  5.510087648697E+01
  5.450313300111E+01  5.388269584568E+01  5.323903700764E+01  5.257165061792E+01
  5.188005741862E+01  5.116380960047E+01  5.042249602118E+01  4.965574781237E+01
  4.886324437971E+01  4.804471979679E+01  4.719996958841E+01  4.632885789354E+01
  4.543132499140E+01  4.450739516674E+01  4.355718488148E+01  4.258091121029E+01
  4.157890048644E+01  4.055159709211E+01  3.949957231374E+01  3.842353316819E+01
  3.732433108977E+01  3.620297035087E+01  3.506061607127E+01  3.448197627955E+01
  3.389860165240E+01  3.331068625500E+01  3.271843545396E+01  3.212206607014E+01
  3.152180651133E+01  3.091789688273E+01  3.031058907351E+01  2.970014681726E+01
  2.908684572427E+01  2.847097328369E+01  2.785282883325E+01  2.723272349451E+01
  2.661098007129E+01  2.598793290928E+01  2.536392771450E+01  2.473932132843E+01
  2.411448145775E+01  2.348978635656E+01  2.286562445906E+01  2.224239396065E+01
  2.162050234591E+01  2.100036586134E+01  2.038240893170E+01  1.976706351835E+01
  1.915476841850E+01  1.854596850444E+01  1.794111390204E+01  1.734065910824E+01
  1.674506204729E+01  1.615478306622E+01  1.557028387009E+01  1.499202639820E+01
  1.442047164264E+01  1.385607841146E+01  1.329930203866E+01  1.275059304432E+01
  1.221039574833E+01  1.167914684201E+01  1.115727392236E+01  1.064519399441E+01
  1.014331194777E+01  9.652019014023E+00  9.171691212404E+00  8.702687791713E+00
  8.245349677159E+00  7.799997931358E+00  7.366932239360E+00  6.946429428096E+00
  6.538742031161E+00  6.144096910290E+00  5.762693945274E+00  5.394704804357E+00
  5.040271807378E+00  4.699506894032E+00  4.372490709599E+00  4.059271820388E+00
  3.759866070863E+00  3.474256093978E+00  3.202390985718E+00  2.944186154047E+00
  2.699523351590E+00  2.468250900256E+00  2.250184114723E+00  2.045105930276E+00
  1.852767738795E+00  1.672890434918E+00  1.505165672379E+00  1.349257328407E+00
  1.204803171782E+00  1.071416727733E+00  9.486893304263E-01  8.361923511791E-01
  7.334795880287E-01  6.400897996767E-01  5.555493643516E-01  4.793750417187E-01
  4.110768137147E-01  3.501607781340E-01  2.961320669947E-01  2.484977602251E-01
  2.067697640814E-01  1.704676229902E-01  1.391212332460E-01  1.122734272339E-01
  8.948239761523E-02  7.032393224235E-02  5.439343247252E-02  4.130769002826E-02
  3.070640060031E-02  2.225339597858E-02  1.563758059002E-02  1.057356286112E-02
  6.801976736140E-03  4.089493878682E-03  2.228532462002E-03  1.036673892262E-03
  3.558041811059E-04  5.100185028106E-05  9.199069013136E-06  1.376470504090E-04
  3.622204264215E-04  6.255982509809E-04  8.853613315437E-04  1.112046664351E-03
  1.287199777467E-03  1.401464727978E-03  1.452749350124E-03  1.444500142178E-03
  1.384116984121E-03  1.281532808741E-03  1.147977557693E-03  9.949394293783E-04
  8.333297855892E-04  6.728513701308E-04  5.215629603961E-04  3.856274802540E-04
  2.692251984949E-04  1.746091483696E-04  1.022765224330E-04  5.122766803054E-05
  1.928351997573E-05  3.432880317389E-06  1.828422571601E-07  5.888736450259E-06
  1.704406528515E-05  3.051573643457E-05  4.371521573974E-05  5.470166542475E-05
  6.221838032985E-05  6.566855772427E-05  6.504034559986E-05  6.079397729099E-05
  5.372545982925E-05  4.482167275882E-05  3.512088423149E-05  2.559073100724E-05
  1.703285694725E-05  1.001995182495E-05  4.867218233565E-06  1.636676601342E-06
  1.695390516468E-07  1.394353289806E-07  1.117772359822E-06  2.642064919693E-06
  4.278684402039E-06  5.673015402492E-06  6.582261298763E-06  6.888797061175E-06
  6.594684204468E-06  5.800393006623E-06  4.672619034867E-06  3.407117196491E-06
  2.192604071012E-06  1.181024959189E-06  4.679993248654E-07  8.530522471694E-08
  0.000000000000E+00  0.000000000000E+00  0.000000000000E+00  0.000000000000E+00
  0.000000000000E+00  0.000000000000E+00  0.000000000000E+00  0.000000000000E+00
  0.000000000000E+00  0.000000000000E+00  0.000000000000E+00  0.000000000000E+00
  0.000000000000E+00  0.000000000000E+00  0.000000000000E+00  0.000000000000E+00
  0.000000000000E+00  0.000000000000E+00  0.000000000000E+00  0.000000000000E+00
  0.000000000000E+00  0.000000000000E+00  0.000000000000E+00  0.000000000000E+00
  0.000000000000E+00  0.000000000000E+00  0.000000000000E+00  0.000000000000E+00
  0.000000000000E+00  0.000000000000E+00  0.000000000000E+00  0.000000000000E+00
  0.000000000000E+00  0.000000000000E+00  0.000000000000E+00  0.000000000000E+00
  0.000000000000E+00  0.000000000000E+00  0.000000000000E+00  0.000000000000E+00
  0.000000000000E+00  0.000000000000E+00  0.000000000000E+00  0.000000000000E+00
  0.000000000000E+00  0.000000000000E+00  0.000000000000E+00  0.000000000000E+00
  0.000000000000E+00  0.000000000000E+00  0.000000000000E+00  0.000000000000E+00
  0.000000000000E+00  0.000000000000E+00  0.000000000000E+00  0.000000000000E+00
  0.000000000000E+00  0.000000000000E+00  0.000000000000E+00  0.000000000000E+00
  0.000000000000E+00  0.000000000000E+00  0.000000000000E+00  0.000000000000E+00
  0.000000000000E+00  0.000000000000E+00
</data>
</radfunc>
</pseudocore-charge>
<semilocal-potentials set="scalar_relativistic">
<slps n="4" l="s" rc="1.40470236937">
<radfunc>
<data npts="290">
  6.204622877024E+01  6.198766913971E+01  6.181306483410E+01  6.152326180560E+01
  6.112341689329E+01  6.060304390399E+01  5.994853930548E+01  5.921079874410E+01
  5.831154053055E+01  5.735984618076E+01  5.631189047141E+01  5.520153525405E+01
  5.389789497347E+01  5.257913976933E+01  5.130332592972E+01  4.988276845198E+01
  4.830848733039E+01  4.687366167620E+01  4.532348814854E+01  4.365586038619E+01
  4.187013762014E+01  4.035718307377E+01  3.877071210952E+01  3.711299028286E+01
  3.538717183494E+01  3.359732481272E+01  3.174843462703E+01  3.032652587677E+01
  2.887749519748E+01  2.740439449676E+01  2.591050797060E+01  2.439932671504E+01
  2.287451934105E+01  2.133989909734E+01  1.979938812925E+01  1.825697960644E+01
  1.671669853335E+01  1.518256210883E+01  1.416518186444E+01  1.315345574800E+01
  1.214851906935E+01  1.115148101890E+01  1.016342040765E+01  9.185381722846E+00
  8.218371532727E+00  7.263355268749E+00  6.321254408549E+00  5.392944077258E+00
  4.479251079390E+00  3.580952367973E+00  2.698773952286E+00  1.833390240489E+00
  9.854238086102E-01  1.554455829970E-01 -6.560245807068E-01 -1.448516942492E+00
 -2.221610570369E+00 -2.974931706361E+00 -3.708151834426E+00 -4.420985480420E+00
 -5.113187775548E+00 -5.784551815884E+00 -6.434905851267E+00 -7.064110337546E+00
 -7.672054886596E+00 -8.258655148902E+00 -8.823849664000E+00 -9.098406043796E+00
 -9.367596714409E+00 -9.631419036261E+00 -9.889871219301E+00 -1.014295223073E+01
 -1.039066170475E+01 -1.063299985475E+01 -1.086996738809E+01 -1.110156542399E+01
 -1.132779541454E+01 -1.154865906949E+01 -1.176415828479E+01 -1.197429507536E+01
 -1.217907151239E+01 -1.237848966536E+01 -1.257255154911E+01 -1.276125907621E+01
 -1.294461401486E+01 -1.312261795255E+01 -1.329527226559E+01 -1.346257809481E+01
 -1.362453632732E+01 -1.378114758455E+01 -1.393241221660E+01 -1.407833030263E+01
 -1.421890165747E+01 -1.435412584402E+01 -1.448400219135E+01 -1.460852981812E+01
 -1.472770766097E+01 -1.484153450743E+01 -1.495000903282E+01 -1.505312984070E+01
 -1.515089550624E+01 -1.524330462192E+01 -1.533035584500E+01 -1.541204794624E+01
 -1.548837985926E+01 -1.555935073019E+01 -1.562495996713E+01 -1.568520728919E+01
 -1.574009277487E+01 -1.578961690976E+01 -1.583378063357E+01 -1.587258538661E+01
 -1.590603315603E+01 -1.593412652221E+01 -1.595686870563E+01 -1.597426361480E+01
 -1.598631589593E+01 -1.599303098467E+01 -1.599441516095E+01 -1.599047560722E+01
 -1.598122047113E+01 -1.596665893329E+01 -1.594680128099E+01 -1.592165898903E+01
 -1.589124480867E+01 -1.585557286652E+01 -1.581465877492E+01 -1.576851975641E+01
 -1.571717478514E+01 -1.566064474897E+01 -1.559895263683E+01 -1.553212375695E+01
 -1.546018599279E+01 -1.538317010479E+01 -1.530111008739E+01 -1.521404359245E+01
 -1.512201243161E+01 -1.502506317165E+01 -1.492324783853E+01 -1.481662474671E+01
 -1.470525947178E+01 -1.458922598470E+01 -1.446860796624E+01 -1.434350031955E+01
 -1.421401089769E+01 -1.408026246024E+01 -1.394239487000E+01 -1.380056753570E+01
 -1.365496210007E+01 -1.350578536489E+01 -1.335327243356E+01 -1.319769004004E+01
 -1.303934001760E+01 -1.287856284384E+01 -1.271574117862E+01 -1.255130328991E+01