<?xml version="1.0" encoding="UTF-8" ?>
<psml version="1.1" energy_unit="hartree" length_unit="bohr"
 uuid="13946ae0-44c5-11e8-6886-8057f0ffd1e7"
 xmlns="http://esl.cecam.org/PSML/ns/1.1">
<provenance creator="ONCVPSP-3.3.0+psml-3.3.0-73 (fully-relativistic)"
 date="2018-04-20">
<annotation action="semilocal-pseudopotential-generation"
 action-cont="projectors-generation" />
<input-file name="oncvpsp-input">
<![CDATA[# atsym z nc nv iexc psfile
Os 76 10 4 4 both
# n l f
1 0 2.0
2 0 2.0
2 1 6.0
3 0 2.0
3 1 6.0
3 2 10.0
4 0 2.0
4 1 6.0
4 2 10.0
4 3 14.0
5 0 2.0
5 1 6.0
5 2 6.0
6 0 2.0
# lmax
3
# l rc ep ncon nbas qcut
0 1.5 0.0 4 8 8.2
1 1.55 0.0 4 8 8.4
2 1.55 0.0 4 8 8.4
3 2.25 0.5 4 8 6.8
# lloc lpopt rc5 dvloc0
4 5 1.5 0.0
# l nproj debl
0 2 1.1
1 2 2.0
2 2 1.5
3 2 3.0
# icmod fcfact rcfact
3 5.0 1.4
# epsh1 epsh2 depsh
-12.0 12.0 0.02
# rlmax drl
6.0 0.01
 0
]]>
</input-file>
</provenance>
<pseudo-atom-spec atomic-label="Os" atomic-number="76" z-pseudo="16"
 flavor="Hamann&apos;s oncvpsp" relativity="dirac" spin-dft="no"
 core-corrections="yes">
<annotation pseudo-energy="-92.3745190475" />
<exchange-correlation>
<annotation oncvpsp-xc-code="4" oncvpsp-xc-type="GGA -- Perdew-Burke-Ernzerhof" />
<libxc-info number-of-functionals="2">
<functional name="Perdew, Burke &amp; Ernzerhof (GGA)" type="exchange" id="101" />
<functional name="Perdew, Burke &amp; Ernzerhof (GGA)" type="correlation"
 id="130" />
</libxc-info>
</exchange-correlation>
<valence-configuration total-valence-charge="16">
<shell n="5" l="s" occupation="2" />
<shell n="5" l="p" occupation="6" />
<shell n="5" l="d" occupation="6" />
<shell n="6" l="s" occupation="2" />
</valence-configuration>
</pseudo-atom-spec>
<grid npts="457">
<annotation type="sampled from oncvpsp log grid"
 recipe="r(i:1..N) = r1*exp(a*(i-1)) + r=0; resampled"
 recipe-cont="r1: scale; a: step" scale="0.657894736842E-05"
 step="0.119285708653E-01" delta="0.500000000000E-02" rmax="44.2661643415" />
<grid-data>
  0.000000000000E+00  5.054775556102E-03  1.009651748877E-02  1.514638622830E-02
  2.016700133758E-02  2.529711905544E-02  3.061676245946E-02  3.575245982319E-02
  4.076538655265E-02  4.593002585167E-02  5.113535818743E-02  5.625555354481E-02
  6.188843525909E-02  6.727800270248E-02  7.313692176392E-02  7.856330635186E-02
  8.439230085264E-02  8.957883088678E-02  9.508411148849E-02  1.009277322338E-01
  1.071304866227E-01  1.123660534284E-01  1.178574872674E-01  1.236172926000E-01
  1.296585849917E-01  1.359951209775E-01  1.426413293872E-01  1.478382847836E-01
  1.532245846394E-01  1.588071274791E-01  1.645930631661E-01  1.705898020602E-01
  1.768050245080E-01  1.832466906800E-01  1.899230507651E-01  1.968426555376E-01
  2.040143673083E-01  2.114473712749E-01  2.165525566070E-01  2.217810015337E-01
  2.271356820347E-01  2.326196459418E-01  2.382360146734E-01  2.439879850116E-01
  2.498788309218E-01  2.559119054155E-01  2.620906424599E-01  2.684185589314E-01
  2.748992566183E-01  2.815364242701E-01  2.883338396977E-01  2.952953719233E-01
  3.024249833830E-01  3.097267321818E-01  3.172047744036E-01  3.248633664768E-01
  3.327068675970E-01  3.407397422083E-01  3.489665625442E-01  3.573920112303E-01
  3.660208839494E-01  3.748580921715E-01  3.839086659489E-01  3.931777567795E-01
  4.026706405392E-01  4.123927204844E-01  4.223495303278E-01  4.274177246917E-01
  4.325467373880E-01  4.377372982367E-01  4.429901458155E-01  4.483060275653E-01
  4.536856998961E-01  4.591299282948E-01  4.646394874344E-01  4.702151612836E-01
  4.758577432190E-01  4.815680361376E-01  4.873468525712E-01  4.931950148021E-01
  4.991133549797E-01  5.051027152395E-01  5.111639478224E-01  5.172979151962E-01
  5.235054901786E-01  5.297875560607E-01  5.361450067335E-01  5.425787468143E-01
  5.490896917760E-01  5.556787680773E-01  5.623469132943E-01  5.690950762538E-01
  5.759242171688E-01  5.828353077749E-01  5.898293314682E-01  5.969072834458E-01
  6.040701708471E-01  6.113190128973E-01  6.186548410521E-01  6.260786991447E-01
  6.335916435344E-01  6.411947432568E-01  6.488890801759E-01  6.566757491380E-01
  6.645558581277E-01  6.725305284252E-01  6.806008947663E-01  6.887681055035E-01
  6.970333227696E-01  7.053977226428E-01  7.138624953145E-01  7.224288452583E-01
  7.310979914014E-01  7.398711672982E-01  7.487496213058E-01  7.577346167615E-01
  7.668274321626E-01  7.760293613485E-01  7.853417136847E-01  7.947658142489E-01
  8.043030040199E-01  8.139546400682E-01  8.237220957490E-01  8.336067608980E-01
  8.436100420288E-01  8.537333625331E-01  8.639781628835E-01  8.743459008381E-01
  8.848380516482E-01  8.954561082679E-01  9.062015815671E-01  9.170760005460E-01
  9.280809125525E-01  9.392178835031E-01  9.504884981052E-01  9.618943600824E-01
  9.734370924034E-01  9.851183375123E-01  9.969397575624E-01  1.008903034653E+00
  1.021009871069E+00  1.033261989522E+00  1.045661133396E+00  1.058209066997E+00
  1.070907575801E+00  1.083758466710E+00  1.096763568311E+00  1.109924731131E+00
  1.123243827904E+00  1.136722753839E+00  1.150363426885E+00  1.164167788008E+00
  1.178137801464E+00  1.192275455081E+00  1.206582760542E+00  1.221061753669E+00
  1.235714494713E+00  1.250543068650E+00  1.265549585473E+00  1.280736180499E+00
  1.296105014665E+00  1.311658274841E+00  1.327398174139E+00  1.343326952229E+00
  1.359446875655E+00  1.375760238163E+00  1.392269361021E+00  1.408976593354E+00
  1.425884312474E+00  1.442994924223E+00  1.460310863314E+00  1.477834593674E+00
  1.495568608798E+00  1.513515432104E+00  1.531677617289E+00  1.550057748696E+00
  1.568658441681E+00  1.587482342981E+00  1.606532131097E+00  1.625810516670E+00
  1.645320242870E+00  1.665064085784E+00  1.685044854814E+00  1.705265393071E+00
  1.725728577788E+00  1.746437320722E+00  1.767394568570E+00  1.788603303393E+00
  1.810066543034E+00  1.831787341550E+00  1.853768789649E+00  1.876014015125E+00
  1.898526183306E+00  1.921308497506E+00  1.944364199476E+00  1.967696569870E+00
  1.991308928708E+00  2.015204635853E+00  2.039387091483E+00  2.063859736581E+00
  2.088626053420E+00  2.113689566061E+00  2.139053840853E+00  2.164722486944E+00
  2.190699156787E+00  2.216987546668E+00  2.243591397228E+00  2.270514493995E+00
  2.297760667923E+00  2.325333795938E+00  2.353237801489E+00  2.381476655107E+00
  2.410054374969E+00  2.438975027468E+00  2.468242727798E+00  2.497861640531E+00
  2.527835980218E+00  2.558170011980E+00  2.588868052124E+00  2.619934468750E+00
  2.651373682375E+00  2.683190166563E+00  2.715388448562E+00  2.747973109945E+00
  2.780948787264E+00  2.814320172711E+00  2.848092014784E+00  2.882269118961E+00
  2.916856348389E+00  2.951858624569E+00  2.987280928064E+00  3.023128299201E+00
  3.059405838791E+00  3.096118708857E+00  3.133272133363E+00  3.170871398963E+00
  3.208921855751E+00  3.247428918020E+00  3.286398065036E+00  3.325834841817E+00
  3.365744859918E+00  3.406133798237E+00  3.447007403816E+00  3.488371492662E+00
  3.530231950574E+00  3.572594733981E+00  3.615465870789E+00  3.658851461238E+00
  3.702757678773E+00  3.747190770918E+00  3.792157060169E+00  3.837662944891E+00
  3.883714900230E+00  3.930319479033E+00  3.977483312781E+00  4.025213112535E+00
  4.073515669885E+00  4.122397857924E+00  4.171866632219E+00  4.221929031805E+00
  4.272592180187E+00  4.323863286349E+00  4.375749645785E+00  4.428258641535E+00
  4.481397745233E+00  4.535174518176E+00  4.589596612394E+00  4.644671771743E+00
  4.700407833004E+00  4.756812727000E+00  4.813894479724E+00  4.871661213481E+00
  4.930121148042E+00  4.989282601819E+00  5.049153993041E+00  5.109743840957E+00
  5.171060767049E+00  5.233113496253E+00  5.295910858208E+00  5.359461788507E+00
  5.423775329969E+00  5.488860633928E+00  5.554726961536E+00  5.621383685074E+00
  5.688840289295E+00  5.757106372766E+00  5.826191649240E+00  5.896105949031E+00
  5.966859220419E+00  6.038461531064E+00  6.110923069437E+00  6.184254146270E+00
  6.258465196025E+00  6.333566778377E+00  6.409569579718E+00  6.486484414675E+00
  6.564322227651E+00  6.643094094383E+00  6.722811223515E+00  6.803484958197E+00
  6.885126777696E+00  6.967748299028E+00  7.051361278616E+00  7.135977613960E+00
  7.221609345327E+00  7.308268657471E+00  7.395967881361E+00  7.484719495937E+00
  7.574536129888E+00  7.665430563447E+00  7.757415730208E+00  7.850504718971E+00
  7.944710775599E+00  8.040047304906E+00  8.136527872565E+00  8.234166207035E+00
  8.332976201520E+00  8.432971915938E+00  8.534167578929E+00  8.636577589877E+00
  8.740216520955E+00  8.845099119206E+00  8.951240308637E+00  9.058655192341E+00
  9.167359054649E+00  9.277367363304E+00  9.388695771664E+00  9.501360120924E+00
  9.615376442375E+00  9.730760959684E+00  9.847530091200E+00  9.965700452294E+00
  1.008528885772E+01  1.020631232401E+01  1.032878807190E+01  1.045273352877E+01
  1.057816633111E+01  1.070510432708E+01  1.083356557901E+01  1.096356836596E+01
  1.109513118635E+01  1.122827276058E+01  1.136301203371E+01  1.149936817812E+01
  1.163736059625E+01  1.177700892341E+01  1.191833303049E+01  1.206135302686E+01
  1.220608926318E+01  1.235256233434E+01  1.250079308235E+01  1.265080259934E+01
  1.280261223053E+01  1.295624357729E+01  1.311171850022E+01  1.326905912222E+01
  1.342828783169E+01  1.358942728567E+01  1.375250041310E+01  1.391753041806E+01
  1.408454078307E+01  1.425355527247E+01  1.442459793574E+01  1.459769311097E+01
  1.477286542830E+01  1.495013981344E+01  1.512954149120E+01  1.531109598910E+01
  1.549482914097E+01  1.568076709066E+01  1.586893629574E+01  1.605936353129E+01
  1.625207589367E+01  1.644710080439E+01  1.664446601405E+01  1.684419960621E+01
  1.704633000149E+01  1.725088596151E+01  1.745789659304E+01  1.766739135216E+01
  1.787940004839E+01  1.809395284897E+01  1.831108028316E+01  1.853081324655E+01
  1.875318300551E+01  1.897822120158E+01  1.920595985600E+01  1.943643137427E+01
  1.966966855076E+01  1.990570457337E+01  2.014457302825E+01  2.038630790459E+01
  2.063094359944E+01  2.087851492264E+01  2.112905710171E+01  2.138260578693E+01
  2.163919705637E+01  2.189886742105E+01  2.216165383010E+01  2.242759367606E+01
  2.269672480018E+01  2.296908549778E+01  2.324471452375E+01  2.352365109804E+01
  2.380593491121E+01  2.409160613015E+01  2.438070540371E+01  2.467327386855E+01
  2.496935315498E+01  2.526898539284E+01  2.557221321755E+01  2.587907977616E+01
  2.618962873347E+01  2.650390427828E+01  2.682195112962E+01  2.714381454317E+01
  2.746954031769E+01  2.779917480150E+01  2.813276489912E+01  2.847035807791E+01
  2.881200237484E+01  2.915774640334E+01  2.950763936018E+01  2.986173103250E+01
  3.022007180489E+01  3.058271266655E+01  3.094970521855E+01  3.132110168117E+01
  3.169695490135E+01  3.207731836016E+01  3.246224618049E+01  3.285179313465E+01
  3.324601465227E+01  3.364496682810E+01  3.404870643003E+01  3.445729090719E+01
  3.487077839808E+01  3.528922773886E+01  3.571269847172E+01  3.614125085338E+01
  3.657494586362E+01  3.701384521399E+01  3.745801135655E+01  3.790750749283E+01
  3.836239758275E+01  3.882274635374E+01  3.928861930999E+01  3.976008274171E+01
  4.023720373461E+01  4.072005017942E+01  4.120869078157E+01  4.170319507095E+01
  4.220363341180E+01  4.271007701275E+01  4.322259793690E+01  4.374126911214E+01
  4.426616434149E+01
</grid-data>
</grid>
<valence-charge total-charge="16" is-unscreening-charge="yes"
 rescaled-to-z-pseudo="no">
<radfunc>
<data npts="457">
  8.463239170470E-01  8.472158218938E-01  8.498825539813E-01  8.543333528415E-01
  8.605251757782E-01  8.686732952047E-01  8.790687180290E-01  8.909871642925E-01
  9.044070223008E-01  9.200818636905E-01  9.377825345505E-01  9.570608830162E-01
  9.804138954080E-01  1.004866701031E+00  1.033794859015E+00  1.062773682510E+00
  1.096252286972E+00  1.128093506497E+00  1.164013106467E+00  1.204538287664E+00
  1.250265264697E+00  1.291042401638E+00  1.335963998691E+00  1.385455362943E+00
  1.439985727910E+00  1.500072672674E+00  1.566286907686E+00  1.620344651481E+00
  1.678490129813E+00  1.741033517479E+00  1.808307946678E+00  1.880670957054E+00
  1.958505962864E+00  2.042223714510E+00  2.132263724535E+00  2.229095619463E+00
  2.333220368258E+00  2.445171325460E+00  2.524431573279E+00  2.607597377840E+00
  2.694851536663E+00  2.786383455117E+00  2.882389045552E+00  2.983070557826E+00
  3.088636329705E+00  3.199300444269E+00  3.315282279951E+00  3.436805937217E+00
  3.564099524238E+00  3.697394282105E+00  3.836923528285E+00  3.982921395132E+00
  4.135621338384E+00  4.295254388668E+00  4.462047117282E+00  4.636219285893E+00
  4.817981148389E+00  5.007530372092E+00  5.205048544953E+00  5.410697235395E+00
  5.624613572283E+00  5.846905314318E+00  6.077645381152E+00  6.316865823046E+00
  6.564551212105E+00  6.820631446482E+00  7.084973969628E+00  7.220183044422E+00
  7.357375420211E+00  7.496513155345E+00  7.637552744900E+00  7.780444817482E+00
  7.925133826323E+00  8.071557735514E+00  8.219647702392E+00  8.369327757181E+00
  8.520514481179E+00  8.673116684899E+00  8.827035087747E+00  8.982162000991E+00
  9.138381015935E+00  9.295566699416E+00  9.453584298908E+00  9.612289459726E+00
  9.771527957016E+00  9.931135445417E+00  1.009093722949E+01  1.025074805819E+01
  1.041037194687E+01  1.056960203056E+01  1.072822045223E+01  1.088599829031E+01
  1.104269552944E+01  1.119806107893E+01  1.135183284339E+01  1.150373784998E+01
  1.165349243699E+01  1.180080250845E+01  1.194536385917E+01  1.208686257502E+01
  1.222497551275E+01  1.235937086368E+01  1.248970880528E+01  1.261564224434E+01
  1.273681765514E+01  1.285287601543E+01  1.296345384261E+01  1.306818433173E+01
  1.316669859643E+01  1.325862701277E+01  1.334360066529E+01  1.342125289357E+01
  1.349122093621E+01  1.355314766832E+01  1.360668342707E+01  1.365148791858E+01
  1.368723219803E+01  1.371360071333E+01  1.373029340128E+01  1.373702782358E+01
  1.373354132842E+01  1.371959322220E+01  1.369496693399E+01  1.365947215461E+01
  1.361294693030E+01  1.355525969049E+01  1.348631118771E+01  1.340603632738E+01
  1.331440586450E+01  1.321142794419E+01  1.309714946317E+01  1.297165722949E+01
  1.283507889902E+01  1.268758366789E+01  1.252938270197E+01  1.236072928624E+01
  1.218191867907E+01  1.199328765934E+01  1.179521375692E+01  1.158811416057E+01
  1.137244430067E+01  1.114869610778E+01  1.091739595215E+01  1.067910227280E+01
  1.043440290893E+01  1.018391215014E+01  9.928267525575E+00  9.668126355551E+00
  9.404162092390E+00  9.137060479944E+00  8.867515563768E+00  8.596225585859E+00
  8.323888799483E+00  8.051199240713E+00  7.778842494035E+00  7.507491489675E+00
  7.237802370239E+00  6.970410463931E+00  6.705926400935E+00  6.444932408743E+00
  6.187978821191E+00  5.935580834797E+00  5.688215544761E+00  5.446319291573E+00
  5.210285347642E+00  4.980461971668E+00  4.757150856473E+00  4.540605993728E+00
  4.331032976303E+00  4.128588755734E+00  3.933381868565E+00  3.745473140888E+00
  3.564876875414E+00  3.391562519770E+00  3.225457026584E+00  3.066448462839E+00
  2.914391581909E+00  2.769116804175E+00  2.630442497777E+00  2.498177415148E+00
  2.372122197388E+00  2.252071313901E+00  2.137814681397E+00  2.029139182527E+00
  1.925830057872E+00  1.827672174607E+00  1.734451174619E+00  1.645954505419E+00
  1.561972337807E+00  1.482298374853E+00  1.406730557147E+00  1.335071669666E+00
  1.267129855853E+00  1.202719044706E+00  1.141659296771E+00  1.083777075008E+00
  1.028905446454E+00  9.768842205926E-01  9.275600300528E-01  8.807863595140E-01
  8.364235279647E-01  7.943386296775E-01  7.544054387103E-01  7.165042819243E-01
  6.805218846704E-01  6.463511934616E-01  6.138911794915E-01  5.830466265983E-01
  5.537279070019E-01  5.258507478548E-01  4.993359913817E-01  4.741093511134E-01
  4.501011664659E-01  4.272461576684E-01  4.054831828099E-01  3.847549985484E-01
  3.650080258173E-01  3.461921216652E-01  3.282603581805E-01  3.111688092800E-01
  2.948763459840E-01  2.793444406557E-01  2.645369805488E-01  2.504200908935E-01
  2.369619676391E-01  2.241327198815E-01  2.119042219185E-01  2.002499748061E-01
  1.891449772224E-01  1.785656054004E-01  1.684895018407E-01  1.588954724835E-01
  1.497633919921E-01  1.410741167757E-01  1.328094053703E-01  1.249518457803E-01
  1.174847893874E-01  1.103922910269E-01  1.036590548394E-01  9.727038551182E-02
  9.121214453045E-02  8.547071108261E-02  8.003294725355E-02  7.488616718148E-02
  7.001810984681E-02  6.541691518654E-02  6.107110323910E-02  5.696955603851E-02
  5.310150199001E-02  4.945650247451E-02  4.602444042894E-02  4.279551068392E-02
  3.976021182850E-02  3.690933939306E-02  3.423398015020E-02  3.172550734357E-02
  2.937557666607E-02  2.717612282002E-02  2.511935650425E-02  2.319776168562E-02
  2.140409302609E-02  1.973137335024E-02  1.817289105254E-02  1.672219735818E-02
  1.537310336584E-02  1.411967681517E-02  1.295623853546E-02  1.187735854532E-02
  1.087785178551E-02  9.952773478422E-03  9.097414117729E-03  8.307294100906E-03
  7.578158024842E-03  6.905968671155E-03  6.286900712960E-03  5.717334178650E-03
  5.193847710986E-03  4.713211661394E-03  4.272381059996E-03  3.868488501692E-03
  3.498836987591E-03  3.160892759459E-03  2.852278162650E-03  2.570764570387E-03
  2.314265399313E-03  2.080829243062E-03  1.868633147310E-03  1.675976046412E-03
  1.501272378417E-03  1.343045892028E-03  1.199923656042E-03  1.070630278913E-03
  9.539823435380E-04  8.488830599913E-04  7.543171368933E-04  6.693458705510E-04
  5.931024492551E-04  5.247874689711E-04  4.636646566706E-04  4.090567953872E-04
  3.603418456705E-04  3.169492577808E-04  2.783564685330E-04  2.440855768131E-04
  2.137001918722E-04  1.868024485986E-04  1.630301841199E-04  1.420542702428E-04
  1.235760963925E-04  1.073251978535E-04  9.305702423368E-05  8.055084316996E-05
  6.960777436521E-05  6.004894909487E-05  5.171379035182E-05  4.445840881144E-05
  3.815410980290E-05  3.268600647027E-05  2.795173430531E-05  2.386026223477E-05
  2.033079545500E-05  1.729176522737E-05  1.467990088266E-05  1.243937933297E-05
  1.052104745649E-05  8.881712804822E-06  7.483498183319E-06  6.293255772214E-06
  5.282036588496E-06  4.424611234239E-06  3.699038034696E-06  3.086274836977E-06
  2.569830915571E-06  2.135455612330E-06  1.770860523830E-06  1.465472236334E-06
  1.210212796176E-06  9.973052894773E-07  8.201020884112E-07  6.729335002332E-07
  5.509747289972E-07  4.501292272786E-07  3.669266755547E-07  2.984339795502E-07
  2.421778204035E-07  1.960774286400E-07  1.583863804967E-07  1.276423340856E-07
  1.026237332627E-07  8.231260905038E-08  6.586270225469E-08  5.257221682829E-08
  4.186059187856E-08  3.324875139645E-08  2.634235517770E-08  2.081763244970E-08
  1.640943183064E-08  1.290116786479E-08  1.011638592495E-08  7.911704167664E-09
  6.170923872858E-09  4.800128284018E-09  3.723615355786E-09  2.880531959931E-09
  2.222096422512E-09  1.709313066721E-09  1.311096996155E-09  1.002739928262E-09
  7.646587113192E-10  5.813774428692E-10  4.407020450860E-10  3.330529154019E-10
  2.509270133948E-10  1.884656046796E-10  1.411079812112E-10  1.053149223836E-10
  7.834854696989E-11  5.809761480939E-11  4.293934105806E-11  3.163044708023E-11
  2.322154446893E-11  1.699007848582E-11  1.238798401911E-11  9.000964743896E-12
  6.516923210791E-12  4.701570356026E-12  3.379647855352E-12  2.420522989095E-12
  1.727177299856E-12  1.215410414249E-12  8.609483340482E-13  6.075190720195E-13
  4.270219404218E-13  2.648900718020E-13  1.846541300538E-13  1.282020269164E-13
  8.864460381590E-14  6.103936739406E-14  4.185492347870E-14  2.857854539894E-14
  1.942981610188E-14  1.315254973296E-14  8.864236266124E-15  5.947575166813E-15
  3.972671535688E-15  2.641472260379E-15  1.748261578356E-15  1.151700969343E-15
  7.551299852508E-16  4.927512916109E-16  3.199874948641E-16  2.067817588921E-16
  1.329657917753E-16  8.507271390912E-17  5.415482829730E-17  3.429684355397E-17
  2.160799296513E-17  1.354224984246E-17  8.442206471451E-18  5.234585230314E-18
  3.228060776535E-18  1.979729376325E-18  1.207385295909E-18  7.322051086599E-19
  4.415063757237E-19  2.646846388582E-19  1.577530806872E-19  9.346602454985E-20
  5.504597778543E-20  3.222270696117E-20  1.874698361663E-20  1.083931096146E-20
  6.227882489168E-21  3.555615278316E-21  2.016933097013E-21  1.136676625905E-21
  6.363806459336E-22  3.539133993580E-22  1.954977862405E-22  1.072547232234E-22
  0.000000000000E+00  0.000000000000E+00  0.000000000000E+00  0.000000000000E+00
  0.000000000000E+00  0.000000000000E+00  0.000000000000E+00  0.000000000000E+00
  0.000000000000E+00  0.000000000000E+00  0.000000000000E+00  0.000000000000E+00
  0.000000000000E+00  0.000000000000E+00  0.000000000000E+00  0.000000000000E+00
  0.000000000000E+00
</data>
</radfunc>
</valence-charge>
<pseudocore-charge matching-radius="0.874345900838"
 number-of-continuous-derivatives="4">
<annotation model-charge-form="Teter function with specified parameters" />
<radfunc>
<data npts="290">
  6.909896430500E+01  6.909524161998E+01  6.908411305567E+01  6.906554609498E+01
  6.903973020829E+01  6.900578247148E+01  6.896251223122E+01  6.891295813265E+01
  6.885723226271E+01  6.879223690319E+01  6.871896282770E+01  6.863930306348E+01
  6.854300758216E+01  6.844241102183E+01  6.832370883517E+01  6.820512688494E+01
  6.806853530192E+01  6.793902026017E+01  6.779337318950E+01  6.762962411832E+01
  6.744557310242E+01  6.728207505462E+01  6.710263463673E+01  6.690574447104E+01
  6.668976454710E+01  6.645291265857E+01  6.619325462168E+01  6.598229002275E+01
  6.575637426824E+01  6.551450355166E+01  6.525561524864E+01  6.497858582801E+01
  6.468222892660E+01  6.436529364180E+01  6.402646310484E+01  6.366435340723E+01
  6.327751296431E+01  6.286442241141E+01  6.257366453916E+01  6.227004968566E+01
  6.195307861052E+01  6.162223965444E+01  6.127700919237E+01  6.091685219458E+01
  6.054122290707E+01  6.014956566264E+01  5.974131583547E+01  5.931590095222E+01
  5.887274197365E+01  5.841125476143E+01  5.793085174527E+01  5.743094380637E+01
  5.691094239348E+01  5.637026188829E+01  5.580832223728E+01  5.522455186710E+01
  5.461839090067E+01  5.398929469055E+01  5.333673768597E+01  5.266021764863E+01
  5.195926023119E+01  5.123342393075E+01  5.048230542714E+01  4.970554531321E+01
  4.890283422070E+01  4.807391934124E+01  4.721861133678E+01  4.678101988589E+01
  4.633679162816E+01  4.588592405217E+01  4.542842004347E+01  4.496428814134E+01
  4.449354279995E+01  4.401620465342E+01  4.353230078450E+01  4.304186499641E+01
  4.254493808714E+01  4.204156812591E+01  4.153181073094E+01  4.101572934800E+01
  4.049339552892E+01  3.996488920932E+01  3.943029898464E+01  3.888972238360E+01
  3.834326613805E+01  3.779104644820E+01  3.723318924198E+01  3.666983042748E+01
  3.610111613706E+01  3.552720296183E+01  3.494825817503E+01  3.436445994288E+01
  3.377599752119E+01  3.318307143621E+01  3.258589364790E+01  3.198468769385E+01
  3.137968881196E+01  3.077114404002E+01  3.015931229011E+01  2.954446439582E+01
  2.892688313023E+01  2.830686319240E+01  2.768471116036E+01  2.706074540827E+01
  2.643529598563E+01  2.580870445629E+01  2.518132369507E+01  2.455351763985E+01
  2.392566099697E+01  2.329813889781E+01  2.267134650476E+01  2.204568856438E+01
  2.142157890628E+01  2.079943988580E+01  2.017970176931E+01  1.956280206056E+01
  1.894918476721E+01  1.833929960671E+01  1.773360115093E+01  1.713254790928E+01
  1.653660135060E+01  1.594622486408E+01  1.536188266025E+01  1.478403861325E+01
  1.421315504621E+01  1.364969146199E+01  1.309410322209E+01  1.254684017698E+01
  1.200834525193E+01  1.147905299269E+01  1.095938807630E+01  1.044976379269E+01
  9.950580503543E+00  9.462224085492E+00  8.985064365343E+00  8.519453555697E+00
  8.065724699979E+00  7.624190136449E+00  7.195139991382E+00  6.778840712133E+00
  6.375533651260E+00  5.985433713338E+00  5.608728076402E+00  5.245575000260E+00
  4.896102734059E+00  4.560408535526E+00  4.238557814295E+00  3.930583411470E+00
  3.636485027276E+00  3.356228808134E+00  3.089747103844E+00  2.836938404716E+00
  2.597667467506E+00  2.371765637781E+00  2.159031375008E+00  1.959230985061E+00
  1.772099563127E+00  1.597342148062E+00  1.434635087199E+00  1.283627608346E+00
  1.143943593421E+00  1.015183545651E+00  8.969267397959E-01  7.887335422270E-01
  6.901478851482E-01  6.006998766692E-01  5.199085259832E-01  4.472845605442E-01
  3.823333099724E-01  3.245576294693E-01  2.734608338658E-01  2.285496120957E-01
  1.893368909535E-01  1.553446164866E-01  1.261064213529E-01  1.011701469670E-01
  8.010019030557E-02  6.247964685529E-02  4.791222338163E-02  3.602389696948E-02
  2.646430011774E-02  1.890781553071E-02  1.305436858833E-02  8.629910232144E-03
  5.386588092110E-03  3.102609003687E-03  1.581801514324E-03  6.528924278586E-04
  1.685167504893E-04  3.985440952892E-06  5.583998558057E-05  2.402268728461E-04
  4.911283949415E-04  7.584887308214E-04  1.006275858360E-03  1.210520417983E-03
  1.357372149684E-03  1.441212925862E-03  1.462862716770E-03  1.427911105603E-03
  1.345202309395E-03  1.225496192700E-03  1.080321654776E-03  9.210322319644E-04
  7.580670172182E-04  6.004133087397E-04  4.552610189765E-04  3.278330601210E-04
  2.213709137891E-04  1.372506031402E-04  7.520148674734E-05  3.359880382292E-05
  9.800776737337E-06  5.023071813497E-07  2.079803107599E-06  1.090529031413E-05
  2.361247575579E-05  3.730256524377E-05  4.968308206709E-05  5.913834990779E-05
  6.473535809060E-05  6.617310776595E-05  6.368697818401E-05  5.792195382534E-05
  4.978960079880E-05  4.032345485418E-05  3.054606324746E-05  2.135848354999E-05
  1.345984203625E-05  7.300912202626E-06  3.071944293846E-06  7.215155178996E-07
  3.019012764563E-10  5.216558181062E-07  1.829875447141E-06  3.467130280443E-06
  5.031098581246E-06  6.217303989591E-06  6.842641289036E-06  6.849325029192E-06
  6.291125945884E-06  5.305947396681E-06  4.080270833194E-06  2.811600338293E-06
  1.674720785518E-06  7.964427641620E-07  2.417494059850E-07  1.218309808121E-08
  0.000000000000E+00  0.000000000000E+00  0.000000000000E+00  0.000000000000E+00
  0.000000000000E+00  0.000000000000E+00  0.000000000000E+00  0.000000000000E+00
  0.000000000000E+00  0.000000000000E+00  0.000000000000E+00  0.000000000000E+00
  0.000000000000E+00  0.000000000000E+00  0.000000000000E+00  0.000000000000E+00
  0.000000000000E+00  0.000000000000E+00  0.000000000000E+00  0.000000000000E+00
  0.000000000000E+00  0.000000000000E+00  0.000000000000E+00  0.000000000000E+00
  0.000000000000E+00  0.000000000000E+00  0.000000000000E+00  0.000000000000E+00
  0.000000000000E+00  0.000000000000E+00  0.000000000000E+00  0.000000000000E+00
  0.000000000000E+00  0.000000000000E+00  0.000000000000E+00  0.000000000000E+00
  0.000000000000E+00  0.000000000000E+00  0.000000000000E+00  0.000000000000E+00
  0.000000000000E+00  0.000000000000E+00
</data>
</radfunc>
</pseudocore-charge>
<semilocal-potentials set="scalar_relativistic">
<slps n="5" l="s" rc="1.51351543210">
<radfunc>
<data npts="290">
  4.293144577996E+00  4.287238819493E+00  4.269596776950E+00  4.240204576231E+00
  4.199423861972E+00  4.145950616869E+00  4.078043906289E+00  4.000619051050E+00
  3.913986328599E+00  3.813520352926E+00  3.700996395578E+00  3.579545615685E+00
  3.433940827764E+00  3.283228132099E+00  3.107197699703E+00  2.933269993677E+00
  2.735270873991E+00  2.549807610850E+00  2.343844094874E+00  2.115506132698E+00
  1.862844389146E+00  1.641857457424E+00  1.402984881299E+00  1.145191565061E+00
  8.674592526629E-01  5.688034463650E-01  2.482928586647E-01 -6.950784636485E-03
 -2.752969619851E-01 -5.570336031557E-01 -8.524043615522E-01 -1.161601756512E+00
 -1.484760121736E+00 -1.821948457422E+00 -2.173163300367E+00 -2.538321741911E+00
 -2.917254737517E+00 -3.309700862779E+00 -3.578665592343E+00 -3.853346796545E+00
 -4.133591866485E+00 -4.419226863158E+00 -4.710056167236E+00 -5.005862236601E+00
 -5.306405478545E+00 -5.611424242506E+00 -5.920634937897E+00 -6.233732280172E+00
 -6.550389666685E+00 -6.870259682182E+00 -7.192974731975E+00 -7.518147798967E+00
 -7.845373318795E+00 -8.174228165483E+00 -8.504272738149E+00 -8.835052137570E+00
 -9.166097419803E+00 -9.496926912660E+00 -9.827047579588E+00 -1.015595641460E+01
 -1.048314185122E+01 -1.080808516805E+01 -1.113026187362E+01 -1.144914305335E+01
 -1.176419666243E+01 -1.207488874914E+01 -1.238068459473E+01 -1.253157937691E+01
 -1.268104975778E+01 -1.282902912949E+01 -1.297545101266E+01 -1.312024907942E+01
 -1.326335717453E+01 -1.340470933461E+01 -1.354423980552E+01 -1.368188305773E+01
 -1.381757379997E+01 -1.395124699092E+01 -1.408283784926E+01 -1.421228186189E+01
 -1.433951479059E+01 -1.446447267715E+01 -1.458709184700E+01 -1.470730891164E+01
 -1.482506076982E+01 -1.494028460772E+01 -1.505291789833E+01 -1.516289840012E+01
 -1.527016415525E+01 -1.537465348749E+01 -1.547630500022E+01 -1.557505757450E+01
 -1.567085036770E+01 -1.576362281282E+01 -1.585331461883E+01 -1.593986577235E+01
 -1.602321654084E+01 -1.610330747787E+01 -1.618007943046E+01 -1.625347354913E+01
 -1.632343130075E+01 -1.638989448473E+01 -1.645280525269E+01 -1.651210613214E+01
 -1.656774005425E+01 -1.661965038637E+01 -1.666778096924E+01 -1.671207615941E+01
 -1.675248087713E+01 -1.678894065980E+01 -1.682140172137E+01 -1.684981101778E+01
 -1.687411631861E+01 -1.689426628502E+01 -1.691021055419E+01 -1.692189983006E+01
 -1.692928598063E+01 -1.693232214158E+01 -1.693096282625E+01 -1.692516404188E+01
 -1.691488341201E+01 -1.690008030485E+01 -1.688071596770E+01 -1.685675366717E+01
 -1.682815883534E+01 -1.679489922176E+01 -1.675694505156E+01 -1.671426918992E+01
 -1.666684731324E+01 -1.661465808765E+01 -1.655768335569E+01 -1.649590833225E+01
 -1.642932181096E+01 -1.635791638301E+01 -1.628168867013E+01 -1.620063957454E+01
 -1.611477454871E+01 -1.602410388851E+01 -1.592864305404E+01 -1.582841302307E+01
 -1.572344068283E+01 -1.561375926702E+01 -1.549940884582E+01 -1.538043687796E+01
 -1.525689883561E+01 -1.512885891391E+01 -1.499639083933E+01 -1.485957879263E+01
 -1.471851846463E+01 -1.457331826501E+01 -1.442410070730E+01 -1.427100399506E+01