<?xml version="1.0" encoding="UTF-8" ?>
<psml version="1.1" energy_unit="hartree" length_unit="bohr"
 uuid="dbc0d0f0-4707-11e8-400d-6f0c7ffe92ff"
 xmlns="http://esl.cecam.org/PSML/ns/1.1">
<provenance creator="ONCVPSP-3.3.0+psml-3.3.0-73 (fully-relativistic)"
 date="2018-04-23">
<annotation action="semilocal-pseudopotential-generation"
 action-cont="projectors-generation" />
<input-file name="oncvpsp-input">
<![CDATA[# atsym z nc nv iexc psfile
Al 13 3 2 4 both
# n l f
1 0 2.0
2 0 2.0
2 1 6.0
3 0 2.0
3 1 1.0
# lmax
2
# l rc ep ncon nbas qcut
0 1.75 0.0 4 9 6.0
1 1.75 0.0 4 9 6.4
2 1.7 0.05 4 9 6.5
# lloc lpopt rc5 dvloc0
4 5 1.4 0.0
# l nproj debl
0 2 2.8
1 2 2.8
2 2 1.5
# icmod fcfact
3 5 1.3
# epsh1 epsh2 depsh
-12.0 12.0 0.02
# rlmax drl
6.0 0.01
 0
]]>
</input-file>
</provenance>
<pseudo-atom-spec atomic-label="Al" atomic-number="13" z-pseudo="3"
 flavor="Hamann&apos;s oncvpsp" relativity="dirac" spin-dft="no"
 core-corrections="yes">
<annotation pseudo-energy="-1.95270934010" />
<exchange-correlation>
<annotation oncvpsp-xc-code="4" oncvpsp-xc-type="GGA -- Perdew-Burke-Ernzerhof" />
<libxc-info number-of-functionals="2">
<functional name="Perdew, Burke &amp; Ernzerhof (GGA)" type="exchange" id="101" />
<functional name="Perdew, Burke &amp; Ernzerhof (GGA)" type="correlation"
 id="130" />
</libxc-info>
</exchange-correlation>
<valence-configuration total-valence-charge="3">
<shell n="3" l="s" occupation="2" />
<shell n="3" l="p" occupation="1" />
</valence-configuration>
</pseudo-atom-spec>
<grid npts="457">
<annotation type="sampled from oncvpsp log grid"
 recipe="r(i:1..N) = r1*exp(a*(i-1)) + r=0; resampled"
 recipe-cont="r1: scale; a: step" scale="0.384615384615E-04"
 step="0.119285708653E-01" delta="0.500000000000E-02" rmax="44.2819035286" />
<grid-data>
  0.000000000000E+00  5.056572821787E-03  1.010010738593E-02  1.515177164649E-02
  2.017417187544E-02  2.530611364749E-02  3.062764849307E-02  3.576517189487E-02
  4.077988101034E-02  4.594635663797E-02  5.115353977107E-02  5.627555565467E-02
  6.191044018488E-02  6.730192393188E-02  7.316292617862E-02  7.859124016080E-02
  8.442230720698E-02  8.961068135315E-02  9.511791940120E-02  1.009636178924E-01
  1.071685777200E-01  1.124060060732E-01  1.178993924351E-01  1.236612457124E-01
  1.297046861337E-01  1.360434751253E-01  1.426920466473E-01  1.478908498626E-01
  1.532790648602E-01  1.588635926174E-01  1.646515855399E-01  1.706504566222E-01
  1.768678889419E-01  1.833118454995E-01  1.899905794176E-01  1.969126445107E-01
  2.040869062406E-01  2.115225530709E-01  2.166295535922E-01  2.218598575342E-01
  2.272164419345E-01  2.327023557085E-01  2.383207213848E-01  2.440747368819E-01
  2.499676773291E-01  2.560028969306E-01  2.621838308741E-01  2.685139972867E-01
  2.749969992372E-01  2.816365267868E-01  2.884363590895E-01  2.954003665434E-01
  3.025325129932E-01  3.098368579869E-01  3.173175590861E-01  3.249788742327E-01
  3.328251641722E-01  3.408608949359E-01  3.490906403833E-01  3.575190848047E-01
  3.661510255882E-01  3.749913759500E-01  3.840451677310E-01  3.933175542607E-01
  4.028138132907E-01  4.125393499988E-01  4.224997000652E-01  4.275696964660E-01
  4.327005328236E-01  4.378929392174E-01  4.431476544881E-01  4.484654263419E-01
  4.538470114580E-01  4.592931755955E-01  4.648046937027E-01  4.703823500271E-01
  4.760269382274E-01  4.817392614861E-01  4.875201326240E-01  4.933703742155E-01
  4.992908187060E-01  5.052823085305E-01  5.113456962329E-01  5.174818445877E-01
  5.236916267227E-01  5.299759262434E-01  5.363356373583E-01  5.427716650066E-01
  5.492849249867E-01  5.558763440865E-01  5.625468602156E-01  5.692974225382E-01
  5.761289916086E-01  5.830425395079E-01  5.900390499820E-01  5.971195185818E-01
  6.042849528048E-01  6.115363722385E-01  6.188748087053E-01  6.263013064098E-01
  6.338169220867E-01  6.414227251517E-01  6.491197978536E-01  6.569092354278E-01
  6.647921462529E-01  6.727696520080E-01  6.808428878321E-01  6.890130024860E-01
  6.972811585159E-01  7.056485324181E-01  7.141163148071E-01  7.226857105848E-01
  7.313579391118E-01  7.401342343811E-01  7.490158451937E-01  7.580040353360E-01
  7.671000837601E-01  7.763052847652E-01  7.856209481824E-01  7.950483995606E-01
  8.045889803553E-01  8.142440481195E-01  8.240149766970E-01  8.339031564173E-01
  8.439099942943E-01  8.540369142259E-01  8.642853571966E-01  8.746567814830E-01
  8.851526628607E-01  8.957744948151E-01  9.065237887529E-01  9.174020742179E-01
  9.284108991085E-01  9.395518298978E-01  9.508264518566E-01  9.622363692789E-01
  9.737832057102E-01  9.854686041787E-01  9.972942274289E-01  1.009261758158E+00
  1.021372899256E+00  1.033629374047E+00  1.046032926536E+00  1.058585321654E+00
  1.071288345514E+00  1.084143805660E+00  1.097153531328E+00  1.110319373704E+00
  1.123643206188E+00  1.137126924663E+00  1.150772447759E+00  1.164581717132E+00
  1.178556697737E+00  1.192699378110E+00  1.207011770647E+00  1.221495911895E+00
  1.236153862838E+00  1.250987709192E+00  1.265999561702E+00  1.281191556443E+00
  1.296565855120E+00  1.312124645381E+00  1.327870141126E+00  1.343804582819E+00
  1.359930237813E+00  1.376249400667E+00  1.392764393475E+00  1.409477566197E+00
  1.426391296991E+00  1.443507992555E+00  1.460830088466E+00  1.478360049527E+00
  1.496100370122E+00  1.514053574563E+00  1.532222217458E+00  1.550608884067E+00
  1.569216190676E+00  1.588046784964E+00  1.607103346384E+00  1.626388586540E+00
  1.645905249579E+00  1.665656112574E+00  1.685643985925E+00  1.705871713756E+00
  1.726342174321E+00  1.747058280413E+00  1.768022979778E+00  1.789239255535E+00
  1.810710126601E+00  1.832438648121E+00  1.854427911898E+00  1.876681046841E+00
  1.899201219403E+00  1.921991634036E+00  1.945055533644E+00  1.968396200048E+00
  1.992016954449E+00  2.015921157902E+00  2.040112211797E+00  2.064593558338E+00
  2.089368681038E+00  2.114441105211E+00  2.139814398473E+00  2.165492171255E+00
  2.191478077310E+00  2.217775814238E+00  2.244389124009E+00  2.271321793497E+00
  2.298577655019E+00  2.326160586879E+00  2.354074513922E+00  2.382323408089E+00
  2.410911288986E+00  2.439842224453E+00  2.469120331147E+00  2.498749775121E+00
  2.528734772422E+00  2.559079589691E+00  2.589788544768E+00  2.620866007305E+00
  2.652316399392E+00  2.684144196185E+00  2.716353926539E+00  2.748950173658E+00
  2.781937575742E+00  2.815320826651E+00  2.849104676570E+00  2.883293932689E+00
  2.917893459882E+00  2.952908181400E+00  2.988343079577E+00  3.024203196532E+00
  3.060493634890E+00  3.097219558509E+00  3.134386193211E+00  3.171998827530E+00
  3.210062813460E+00  3.248583567221E+00  3.287566570028E+00  3.327017368868E+00
  3.366941577295E+00  3.407344876222E+00  3.448233014737E+00  3.489611810914E+00
  3.531487152645E+00  3.573864998477E+00  3.616751378458E+00  3.660152395000E+00
  3.704074223740E+00  3.748523114425E+00  3.793505391798E+00  3.839027456499E+00
  3.885095785977E+00  3.931716935409E+00  3.978897538634E+00  4.026644309098E+00
  4.074964040807E+00  4.123863609296E+00  4.173349972608E+00  4.223430172279E+00
  4.274111334347E+00  4.325400670359E+00  4.377305478403E+00  4.429833144144E+00
  4.482991141874E+00  4.536787035576E+00  4.591228480003E+00  4.646323221763E+00
  4.702079100424E+00  4.758504049629E+00  4.815606098225E+00  4.873393371404E+00
  4.931874091860E+00  4.991056580963E+00  5.050949259934E+00  5.111560651053E+00
  5.172899378866E+00  5.234974171413E+00  5.297793861469E+00  5.361367387807E+00
  5.425703796461E+00  5.490812242018E+00  5.556701988923E+00  5.623382412790E+00
  5.690863001743E+00  5.759153357764E+00  5.828263198057E+00  5.898202356434E+00
  5.968980784711E+00  6.040608554128E+00  6.113095856777E+00  6.186453007058E+00
  6.260690443143E+00  6.335818728461E+00  6.411848553202E+00  6.488790735841E+00
  6.566656224671E+00  6.645456099367E+00  6.725201572559E+00  6.805903991430E+00
  6.887574839327E+00  6.970225737399E+00  7.053868446248E+00  7.138514867603E+00
  7.224177046014E+00  7.310867170566E+00  7.398597576613E+00  7.487380747532E+00
  7.577229316503E+00  7.668156068301E+00  7.760173941121E+00  7.853296028414E+00
  7.947535580755E+00  8.042906007724E+00  8.139420879817E+00  8.237093930374E+00
  8.335939057539E+00  8.435970326229E+00  8.537201970144E+00  8.639648393786E+00
  8.743324174511E+00  8.848244064606E+00  8.954422993381E+00  9.061876069301E+00
  9.170618582133E+00  9.280666005119E+00  9.392033997180E+00  9.504738405146E+00
  9.618795266008E+00  9.734220809200E+00  9.851031458910E+00  9.969243836417E+00
  1.008887476245E+01  1.020994125960E+01  1.033246055472E+01  1.045645008138E+01
  1.058192748235E+01  1.070891061214E+01  1.083741753949E+01  1.096746654996E+01
  1.109907614856E+01  1.123226506234E+01  1.136705224309E+01  1.150345687001E+01
  1.164149835245E+01  1.178119633268E+01  1.192257068867E+01  1.206564153693E+01
  1.221042923538E+01  1.235695438620E+01  1.250523783884E+01  1.265530069290E+01
  1.280716430122E+01  1.296085027283E+01  1.311638047610E+01  1.327377704182E+01
  1.343306236632E+01  1.359425911472E+01  1.375739022409E+01  1.392247890678E+01
  1.408954865366E+01  1.425862323751E+01  1.442972671636E+01  1.460288343695E+01
  1.477811803820E+01  1.495545545465E+01  1.513492092011E+01  1.531653997115E+01
  1.550033845081E+01  1.568634251222E+01  1.587457862236E+01  1.606507356583E+01
  1.625785444862E+01  1.645294870200E+01  1.665038408643E+01  1.685018869546E+01
  1.705239095981E+01  1.725701965133E+01  1.746410388714E+01  1.767367313379E+01
  1.788575721140E+01  1.810038629793E+01  1.831759093351E+01  1.853740202471E+01
  1.875985084901E+01  1.898496905919E+01  1.921278868790E+01  1.944334215216E+01
  1.967666225798E+01  1.991278220508E+01  2.015173559154E+01  2.039355641864E+01
  2.063827909566E+01  2.088593844481E+01  2.113656970615E+01  2.139020854262E+01
  2.164689104513E+01  2.190665373768E+01  2.216953358253E+01  2.243556798552E+01
  2.270479480134E+01  2.297725233896E+01  2.325297936703E+01  2.353201511943E+01
  2.381439930087E+01  2.410017209248E+01  2.438937415759E+01  2.468204664748E+01
  2.497823120725E+01  2.527796998173E+01  2.558130562151E+01  2.588828128897E+01
  2.619894066444E+01  2.651332795241E+01  2.683148788784E+01  2.715346574250E+01
  2.747930733141E+01  2.780905901938E+01  2.814276772762E+01  2.848048094035E+01
  2.882224671163E+01  2.916811367217E+01  2.951813103624E+01  2.987234860867E+01
  3.023081679198E+01  3.059358659348E+01  3.096070963260E+01  3.133223814819E+01
  3.170822500597E+01  3.208872370604E+01  3.247378839052E+01  3.286347385120E+01
  3.325783553742E+01  3.365692956387E+01  3.406081271863E+01  3.446954247126E+01
  3.488317698091E+01  3.530177510468E+01  3.572539640594E+01  3.615410116281E+01
  3.658795037676E+01  3.702700578128E+01  3.747132985066E+01  3.792098580887E+01
  3.837603763857E+01  3.883655009024E+01  3.930258869132E+01  3.977421975562E+01
  4.025151039268E+01  4.073452851739E+01  4.122334285960E+01  4.171802297392E+01
  4.221863924961E+01  4.272526292060E+01  4.323796607565E+01  4.375682166856E+01
  4.428190352858E+01
</grid-data>
</grid>
<valence-charge total-charge="3" is-unscreening-charge="yes"
 rescaled-to-z-pseudo="no">
<radfunc>
<data npts="457">
  3.350874650637E-02  3.351518770000E-02  3.353444346333E-02  3.356657203860E-02
  3.361124880004E-02  3.367000652895E-02  3.374491325211E-02  3.383071666546E-02
  3.392723028329E-02  3.403983003597E-02  3.416681372196E-02  3.430491436972E-02
  3.447192636297E-02  3.464648221259E-02  3.485256725805E-02  3.505856659350E-02
  3.529600691480E-02  3.552130149473E-02  3.577484210729E-02  3.606013116023E-02
  3.638109586439E-02  3.666649452045E-02  3.698002679541E-02  3.732442321791E-02
  3.770267161899E-02  3.811804013193E-02  3.857410209103E-02  3.894518973069E-02
  3.934313644110E-02  3.976984348189E-02  4.022734166766E-02  4.071779972748E-02
  4.124353318657E-02  4.180701380821E-02  4.241087963794E-02  4.305794569614E-02
  4.375121536966E-02  4.449389255708E-02  4.501813769385E-02  4.556692396139E-02
  4.614136624411E-02  4.674262823888E-02  4.737192455273E-02  4.803052289328E-02
  4.871974635483E-02  4.944097580270E-02  5.019565235765E-02  5.098527998142E-02
  5.181142816333E-02  5.267573470653E-02  5.357990861106E-02  5.452573304859E-02
  5.551506842197E-02  5.654985549977E-02  5.763211861354E-02  5.876396890198E-02
  5.994760758338E-02  6.118532923378E-02  6.247952504520E-02  6.383268603478E-02
  6.524740617280E-02  6.672638539530E-02  6.827243246558E-02  6.988846764898E-02
  7.157752516679E-02  7.334275539937E-02  7.518742681473E-02  7.614060706136E-02
  7.711492760844E-02  7.811083090924E-02  7.912876705344E-02  8.016919379467E-02
  8.123257657460E-02  8.231938854413E-02  8.343011058209E-02  8.456523131233E-02
  8.572524711978E-02  8.691066216650E-02  8.812198840844E-02  8.935974561416E-02
  9.062446138641E-02  9.191667118760E-02  9.323691837050E-02  9.458575421497E-02
  9.596373797186E-02  9.737143691497E-02  9.880942640161E-02  1.002782899424E-01
  1.017786192804E-01  1.033110144787E-01  1.048760840173E-01  1.064744448948E-01
  1.081067227364E-01  1.097735519017E-01  1.114755755899E-01  1.132134459366E-01
  1.149878240950E-01  1.167993802929E-01  1.186487938553E-01  1.205367531805E-01
  1.224639556548E-01  1.244311074885E-01  1.264389234544E-01  1.284881265051E-01
  1.305794472452E-01  1.327136232283E-01  1.348913980486E-01  1.371135201906E-01
  1.393807415995E-01  1.416938159308E-01  1.440534964335E-01  1.464605334216E-01
  1.489156712808E-01  1.514196449612E-01  1.539731759009E-01  1.565769673266E-01
  1.592316988765E-01  1.619380204926E-01  1.646965455317E-01  1.675078430464E-01
  1.703724291947E-01  1.732907577430E-01  1.762632096334E-01  1.792900816014E-01
  1.823715738375E-01  1.855077767053E-01  1.886986565421E-01  1.919440405905E-01
  1.952436011269E-01  1.985968388798E-01  2.020030658526E-01  2.054613876942E-01
  2.089706857862E-01  2.125295992448E-01  2.161365070624E-01  2.197895106404E-01
  2.234864169887E-01  2.272247228904E-01  2.310016003459E-01  2.348138836220E-01
  2.386580582374E-01  2.425302522108E-01  2.464262298840E-01  2.503413886068E-01
  2.542707585336E-01  2.582090057288E-01  2.621504387138E-01  2.660890185071E-01
  2.700183721174E-01  2.739318093422E-01  2.778223426094E-01  2.816827094753E-01
  2.855053972669E-01  2.892826692326E-01  2.930065914506E-01  2.966690596448E-01
  3.002618249851E-01  3.037765179060E-01  3.072046689800E-01  3.105377259339E-01
  3.137670660070E-01  3.168840030285E-01  3.198797888398E-01  3.227456090086E-01
  3.254725731766E-01  3.280517008412E-01  3.304739038893E-01  3.327299677564E-01
  3.348105336599E-01  3.367060849171E-01  3.384069408786E-01  3.399032624346E-01
  3.411850733552E-01  3.422423018411E-01  3.430648465551E-01  3.436426710139E-01
  3.439659295146E-01  3.440251267183E-01  3.438113116036E-01  3.433163047509E-01
  3.425329558720E-01  3.414554262319E-01  3.400794882529E-01  3.384028322831E-01
  3.364253684535E-01  3.341495099350E-01  3.315804229520E-01  3.287260459684E-01
  3.255962737856E-01  3.222016130761E-01  3.185528920292E-01  3.146614558605E-01
  3.105390014109E-01  3.061975448618E-01  3.016493698033E-01  2.969069787574E-01
  2.919830463785E-01  2.868903743382E-01  2.816418478784E-01  2.762503939816E-01
  2.707289410984E-01  2.650903803825E-01  2.593475283936E-01  2.535130912510E-01
  2.475996302380E-01  2.416195288754E-01  2.355849614988E-01  2.295078633869E-01
  2.233999024947E-01  2.172724528537E-01  2.111365697002E-01  2.050029663929E-01
  1.988819931745E-01  1.927836178292E-01  1.867174082747E-01  1.806925171214E-01
  1.747176682183E-01  1.688011451950E-01  1.629507819960E-01  1.571739553939E-01
  1.514775794541E-01  1.458681019154E-01  1.403515024374E-01  1.349332926603E-01
  1.296185180091E-01  1.244117611700E-01  1.193171471596E-01  1.143383498990E-01
  1.094786002039E-01  1.047406950942E-01  1.001270083275E-01  9.563950205424E-02
  9.127973949602E-02  8.704889854430E-02  8.294778617907E-02  7.897685360760E-02
  7.513621202501E-02  7.142564890043E-02  6.784464469431E-02  6.439238992147E-02
  6.106780246063E-02  5.786954503931E-02  5.479604280668E-02  5.184550091881E-02
  4.901592206316E-02  4.630512385289E-02  4.371075602498E-02  4.123031738004E-02
  3.886117240515E-02  3.660056752469E-02  3.444564692766E-02  3.239346792384E-02
  3.044101578433E-02  2.858521802634E-02  2.682295810549E-02  2.515108848299E-02
  2.356644303934E-02  2.206584881013E-02  2.064613702410E-02  1.930415342798E-02
  1.803676788820E-02  1.684088325809E-02  1.571344351859E-02  1.465144118553E-02
  1.365192399522E-02  1.271200087857E-02  1.182884723915E-02  1.099970955381E-02
  1.022190931849E-02  9.492846364159E-03  8.810001571205E-03  8.170939012239E-03
  7.573307555525E-03  7.014841962490E-03  6.493363513874E-03  6.006780199689E-03
  5.553086508448E-03  5.130362851039E-03  4.736774654214E-03  4.370571158002E-03
  4.030083950389E-03  3.713725271480E-03  3.419986117989E-03  3.147434177427E-03
  2.894711619748E-03  2.660532772491E-03  2.443681703734E-03  2.243009735348E-03
  2.057432907262E-03  1.885929411651E-03  1.727537014212E-03  1.581350477949E-03
  1.446519003279E-03  1.322243696632E-03  1.207775078246E-03  1.102410638399E-03
  1.005492450010E-03  9.164048442472E-04  8.345721546567E-04  7.594565342223E-04
  6.905558488066E-04  6.274016495091E-04  5.695572256781E-04  5.166157395748E-04
  4.681984430427E-04  4.239529759538E-04  3.835517456988E-04  3.466903865476E-04
  3.130862973303E-04  2.824772555639E-04  2.546201058936E-04  2.292895204947E-04
  2.062768289130E-04  1.853889146985E-04  1.664471760932E-04  1.492865479823E-04
  1.337545822920E-04  1.197105840206E-04  1.070248001175E-04  9.557765846779E-05
  8.525905430819E-05  7.596768147323E-05  6.761040596266E-05  6.010167941614E-05
  5.336299018564E-05  4.732234980258E-05  4.191381274656E-05  3.707702753168E-05
  3.275681723547E-05  2.890278770135E-05  2.546896174873E-05  2.241343782405E-05
  1.969807162011E-05  1.728817928086E-05  1.515226089294E-05  1.326174304407E-05
  1.159073930252E-05  1.011582753986E-05  8.815843083292E-06  7.671686742402E-06
  6.666146809846E-06  5.783734185787E-06  5.010529822627E-06  4.334043729827E-06
  3.743084818859E-06  3.227640905812E-06  2.778768224285E-06  2.388489834121E-06
  2.049702342647E-06  1.756090384493E-06  1.502048334074E-06  1.282608751544E-06
  1.093377088671E-06  9.304722056775E-07  7.904722738806E-07  6.703656618399E-07
  5.675064249515E-07  4.795740398602E-07  4.045370458725E-07  3.406202756732E-07
  2.862753771283E-07  2.401543467783E-07  2.010858137895E-07  1.680538306334E-07
  1.401789435861E-07  1.167013322781E-07  9.696582296918E-08  8.040859495760E-08
  6.654541356143E-08  5.496123642259E-08  4.530105247988E-08  3.726182484344E-08
  3.058541998158E-08  2.505241611388E-08  2.047669350321E-08  1.670071847137E-08
  1.359144144573E-08  1.103673720012E-08  8.942322704873E-09  7.229094674497E-09
  5.830835023434E-09  4.692238038435E-09  3.767218179886E-09  3.017462062224E-09
  2.411192365350E-09  1.922115223593E-09  1.528526055261E-09  1.212551862173E-09
  9.595107723011E-10  7.573720460546E-10  5.963019431001E-10  4.682827760416E-10
  3.667941824600E-10  2.865471492267E-10  2.232626426615E-10  1.734878536735E-10
  1.344440757888E-10  1.039011118599E-10  8.007386688553E-11  6.153744308751E-11
  4.715762133863E-11  3.603410117957E-11  2.745428991303E-11  2.085578849440E-11
  1.579602609168E-11  1.192775332548E-11  8.979322586762E-12  6.738867992614E-12
  5.041652342189E-12  3.759978132735E-12  2.795168006353E-12  2.071210149613E-12
  1.529738956507E-12  1.126083100917E-12  8.261641188728E-13  6.040704456268E-13
  4.401660987843E-13  3.196211293516E-13  2.312736628969E-13  1.667517375741E-13
  1.197979821859E-13  8.575210761027E-14  6.115574337406E-14  4.345178141869E-14
  3.075645766007E-14  2.168721042882E-14  1.523315058169E-14  1.065796290801E-14
  7.427396613283E-15  5.155327129764E-15  3.563789423564E-15  2.453481644099E-15
  1.682081487986E-15  1.148372835606E-15  7.806716469503E-16  5.284223799110E-16
  3.561219224976E-16  2.389450608842E-16  1.596085297965E-16  1.061327424881E-16
  7.025127144126E-17  4.628565989050E-17  3.035301443013E-17  1.981050877923E-17
  1.286775117882E-17  8.317592613803E-18  5.350016270260E-18  3.424118944003E-18
  2.180479459811E-18  1.381455655494E-18  8.707131596975E-19  5.459290003269E-19
  0.000000000000E+00  0.000000000000E+00  0.000000000000E+00  0.000000000000E+00
  0.000000000000E+00
</data>
</radfunc>
</valence-charge>
<pseudocore-charge matching-radius="1.40947756620"
 number-of-continuous-derivatives="4">
<annotation model-charge-form="Teter function with specified parameters" />
<radfunc>
<data npts="290">
  1.667979919311E+00  1.667939785537E+00  1.667819803277E+00  1.667619601888E+00
  1.667341191372E+00  1.666975001075E+00  1.666508114652E+00  1.665973238792E+00
  1.665371508042E+00  1.664669365944E+00  1.663877376812E+00  1.663015870698E+00
  1.661973760155E+00  1.660884292554E+00  1.659597671733E+00  1.658311196758E+00
  1.656827900678E+00  1.655420025479E+00  1.653835126233E+00  1.652051135632E+00
  1.650043287052E+00  1.648257270868E+00  1.646294511714E+00  1.644137749378E+00
  1.641768086421E+00  1.639164843091E+00  1.636305401591E+00  1.633977902353E+00
  1.631481168213E+00  1.628803168941E+00  1.625931061415E+00  1.622851141276E+00
  1.619548792760E+00  1.616008436825E+00  1.612213477761E+00  1.608146248472E+00
  1.603787954726E+00  1.599118618713E+00  1.595822501463E+00  1.592372134922E+00
  1.588760650878E+00  1.584980910392E+00  1.581025496735E+00  1.576886708560E+00
  1.572556553351E+00  1.568026741229E+00  1.563288679180E+00  1.558333465798E+00
  1.553151886629E+00  1.547734410214E+00  1.542071184956E+00  1.536152036909E+00
  1.529966468647E+00  1.523503659345E+00  1.516752466231E+00  1.509701427587E+00
  1.502338767480E+00  1.494652402423E+00  1.486629950202E+00  1.478258741067E+00
  1.469525831580E+00  1.460418021353E+00  1.450921872986E+00  1.441023735490E+00
  1.430709771536E+00  1.419965988845E+00  1.408778276092E+00  1.403013513532E+00
  1.397132443689E+00  1.391133288189E+00  1.385014269826E+00  1.378773614320E+00
  1.372409552168E+00  1.365920320596E+00  1.359304165622E+00  1.352559344214E+00
  1.345684126574E+00  1.338676798523E+00  1.331535664014E+00  1.324259047755E+00
  1.316845297966E+00  1.309292789252E+00  1.301599925617E+00  1.293765143599E+00
  1.285786915545E+00  1.277663753028E+00  1.269394210394E+00  1.260976888459E+00
  1.252410438347E+00  1.243693565474E+00  1.234825033676E+00  1.225803669495E+00
  1.216628366600E+00  1.207298090371E+00  1.197811882622E+00  1.188168866483E+00
  1.178368251420E+00  1.168409338410E+00  1.158291525260E+00  1.148014312064E+00
  1.137577306802E+00  1.126980231076E+00  1.116222925977E+00  1.105305358069E+00
  1.094227625506E+00  1.082989964248E+00  1.071592754387E+00  1.060036526565E+00
  1.048321968477E+00  1.036449931448E+00  1.024421437064E+00  1.012237683855E+00
  9.999000540048E-01  9.874101200770E-01  9.747696517356E-01  9.619806224414E-01
  9.490452161046E-01  9.359658336691E-01  9.227450996049E-01  9.093858682823E-01
  8.958912302006E-01  8.822645180408E-01  8.685093125116E-01  8.546294479558E-01
  8.406290176814E-01  8.265123789806E-01  8.122841577996E-01  7.979492530163E-01
  7.835128402862E-01  7.689803754116E-01  7.543575971881E-01  7.396505296831E-01
  7.248654838966E-01  7.100090587552E-01  6.950881413882E-01  6.801099066353E-01
  6.650818157309E-01  6.500116141150E-01  6.349073283151E-01  6.197772618473E-01
  6.046299900825E-01  5.894743540263E-01  5.743194529617E-01  5.591746359037E-01
  5.440494918196E-01  5.289538385685E-01  5.138977105185E-01  4.988913448033E-01
  4.839451661817E-01  4.690697704734E-01  4.542759065426E-01  4.395744568156E-01
  4.249764163171E-01  4.104928702235E-01  3.961349699374E-01  3.819139076960E-01
  3.678408897373E-01  3.539271080578E-01  3.401837108078E-01  3.266217713798E-01
  3.132522562623E-01  3.000859917410E-01  2.871336295460E-01  2.744056115565E-01
  2.619121336905E-01  2.496631091224E-01  2.376681309862E-01  2.259364347387E-01
  2.144768603719E-01  2.032978146803E-01  1.924072338029E-01  1.818125462744E-01
  1.715206368355E-01  1.615378112607E-01  1.518697624791E-01  1.425215382684E-01
  1.334975108127E-01  1.248013484208E-01  1.164359897039E-01  1.084036205136E-01
  1.007056539368E-01  9.334271364227E-02  8.631462086028E-02  7.962038526737E-02
  7.325820002943E-02  6.722544123637E-02  6.151867193587E-02  5.613365094418E-02
  5.106534657767E-02  4.630795541034E-02  4.185492611948E-02  3.769898843481E-02
  3.383218715538E-02  3.024592114445E-02  2.693098715499E-02  2.387762827890E-02
  2.107558675176E-02  1.851416078239E-02  1.618226501431E-02  1.406849416511E-02
  1.216118933026E-02  1.044850638220E-02  8.918485844255E-03  7.559123573051E-03
  6.358441545012E-03  5.304558012017E-03  4.385756271010E-03  3.590551282485E-03
  2.907753374794E-03  2.326528285995E-03  1.836452823021E-03  1.427565459915E-03
  1.090411252835E-03  8.160805193450E-04  5.962408127594E-04  4.231618180264E-04
  2.897329026919E-04  1.894731731306E-04  1.165340104826E-04  6.569419014180E-05
  3.234782044639E-05  1.248546735658E-05  2.668959081136E-06  4.843805226253E-10
  2.086707140799E-06  6.998714340980E-06  1.322869147314E-05  1.964427587978E-05
  2.544157185356E-05  3.009781978812E-05  3.332469396636E-05  3.502315933048E-05
  3.524074730222E-05  3.413201587969E-05  3.192284227750E-05  2.887906071207E-05
  2.527980787464E-05  2.139577927193E-05  1.747243666124E-05  1.371804637874E-05
  1.029627672840E-05  7.322945900568E-06  4.866395820182E-06  2.950876827647E-06
  1.562267059261E-06  6.554213856944E-07  1.624488144511E-07  1.253712225525E-09
  8.374266558045E-08  3.231911969813E-07  6.403772851089E-07  9.682148478656E-07
  1.254752303042E-06  1.464530886432E-06  1.578416562500E-06  1.592120769745E-06
  1.513702787136E-06  1.360395787567E-06  1.155117354359E-06  9.230134090726E-07
  6.883445609376E-07  4.719605215919E-07  2.895280210355E-07  1.505885654529E-07
  5.843301923283E-08  1.069887164159E-08  5.307149660107E-10  1.810075300637E-08
  5.226757644566E-08  9.215874673845E-08  1.284938316962E-07  1.545146950224E-07
  1.664521962271E-07  1.635248225831E-07  1.475266434597E-07  1.221115965776E-07
  9.191250715404E-08  6.164301873854E-08  3.531847216016E-08  1.570054246430E-08
  4.025714567187E-09  2.694718953167E-11  0.000000000000E+00  0.000000000000E+00
  0.000000000000E+00  0.000000000000E+00  0.000000000000E+00  0.000000000000E+00
  0.000000000000E+00  0.000000000000E+00
</data>
</radfunc>
</pseudocore-charge>
<semilocal-potentials set="scalar_relativistic">
<slps n="3" l="s" rc="1.76802297978">
<radfunc>
<data npts="290">
  4.292544499771E+00  4.292412244419E+00  4.292016401418E+00  4.291354367820E+00
  4.290430527076E+00  4.289209786443E+00  4.287644128022E+00  4.285837803789E+00
  4.283789610073E+00  4.281378207246E+00  4.278630719199E+00  4.275609177478E+00
  4.271908771454E+00  4.267987500580E+00  4.263287960879E+00  4.258515433686E+00
  4.252922628539E+00  4.247526060786E+00  4.241349646012E+00  4.234270919895E+00
  4.226146447796E+00  4.218781868121E+00  4.210541659137E+00  4.201312989232E+00
  4.190967648136E+00  4.179360011061E+00  4.166324797920E+00  4.155499727263E+00
  4.143678707815E+00  4.130765224465E+00  4.116653620045E+00  4.101228413861E+00
  4.084363624280E+00  4.065922112341E+00  4.045754967871E+00  4.023700964694E+00
  3.999586117342E+00  3.973223378048E+00  3.954301052633E+00  3.934228379707E+00
  3.912940257818E+00  3.890369125356E+00  3.866445071993E+00  3.841095988586E+00
  3.814247760089E+00  3.785824506061E+00  3.755748873463E+00  3.723942386329E+00
  3.690325856721E+00  3.654819861085E+00  3.617345285570E+00  3.577823943232E+00
  3.536179265085E+00  3.492337065820E+00  3.446226383524E+00  3.397780391028E+00
  3.346937374396E+00  3.293641771708E+00  3.237845262550E+00  3.179507895580E+00
  3.118599238208E+00  3.055099528870E+00  2.989000808571E+00  2.920308004583E+00
  2.849039935318E+00  2.775230201760E+00  2.698927927577E+00  2.659861822895E+00
  2.620198307267E+00  2.579948092658E+00  2.539122919805E+00  2.497735552148E+00
  2.455799764406E+00  2.413330325510E+00  2.370342975567E+00  2.326854396604E+00
  2.282882176816E+00  2.238444768121E+00  2.193561436827E+00  2.148252207256E+00
  2.102537798265E+00  2.056439552577E+00  2.009979358985E+00  1.963179567485E+00
  1.916062897510E+00  1.868652339503E+00  1.820971050145E+00  1.773042241679E+00
  1.724889065803E+00  1.676534492806E+00  1.628001186627E+00  1.579311376712E+00
  1.530486727609E+00  1.481548207401E+00  1.432515956158E+00  1.383409155738E+00
  1.334245902403E+00  1.285043083764E+00  1.235816261778E+00  1.186579563537E+00
  1.137345581739E+00  1.088125286787E+00  1.038927952534E+00  9.897610977380E-01
  9.406304453167E-01  8.915399014740E-01  8.424915567825E-01  7.934857111634E-01
  7.445209246888E-01  6.955940959206E-01  6.467005693388E-01  5.978342731779E-01
  5.489878886776E-01  5.001530514514E-01  4.513205852252E-01  4.024807677933E-01
  3.536236285112E-01  3.047392760612E-01  2.558182546442E-01  2.068519260609E-01
  1.578328744533E-01  1.087553297344E-01  5.961560494843E-02  1.041254208177E-02
 -3.885204000321E-02 -8.817290253404E-02 -1.375409564835E-01 -1.869428533263E-01
 -2.363606059301E-01 -2.857712490964E-01 -3.351465495814E-01 -3.844527756397E-01
 -4.336505362865E-01 -4.826946999217E-01 -5.315344021088E-01 -5.801131509750E-01
 -6.283690383258E-01 -6.762350628638E-01 -7.236395706516E-01 -7.705068158664E-01
 -8.167576428091E-01 -8.623102875167E-01 -9.070812945665E-01 -9.509865414741E-01
 -9.939423597595E-01 -1.035866738168E+00 -1.076680589799E+00 -1.116309061117E+00
 -1.154682857015E+00 -1.191739552442E+00 -1.227424857699E+00 -1.261693801398E+00
 -1.294511792663E+00 -1.325855522217E+00 -1.355713661193E+00 -1.384087316545E+00
 -1.410990203431E+00 -1.436448497734E+00 -1.460500336376E+00 -1.483194939307E+00