<?xml version="1.0" encoding="UTF-8" ?>
<psml version="1.1" energy_unit="hartree" length_unit="bohr"
 uuid="993cb740-5165-11e8-4c7a-e6f67ffb7616"
 xmlns="http://esl.cecam.org/PSML/ns/1.1">
<provenance creator="ONCVPSP-3.3.0+psml-3.3.0-73 (fully-relativistic)"
 date="2018-05-06">
<annotation action="semilocal-pseudopotential-generation"
 action-cont="projectors-generation" />
<input-file name="oncvpsp-input">
<![CDATA[# atsym z nc nv iexc psfile
Co 27 3 4 4 both
# n l f
1 0 2.0
2 0 2.0
2 1 6.0
3 0 2.0
3 1 6.0
3 2 7.0
4 0 2.0
# lmax
2
# l rc ep ncon nbas qcut
0 1.2 0.0 4 7 10.0
1 1.2 0.0 4 7 10.0
2 1.55 0.0 4 7 10.2
# lloc lpopt rc5 dvloc0
4 5 1.2 0.0
# l nproj debl
0 2 0.8
1 2 0.8
2 2 0.8
# icmod fcfact
3 6 1.8
# epsh1 epsh2 depsh
-12.0 12.0 0.02
# rlmax drl
6.0 0.01
 0
]]>
</input-file>
</provenance>
<pseudo-atom-spec atomic-label="Co" atomic-number="27" z-pseudo="17"
 flavor="Hamann&apos;s oncvpsp" relativity="dirac" spin-dft="no"
 core-corrections="yes">
<annotation pseudo-energy="-143.149202484" />
<exchange-correlation>
<annotation oncvpsp-xc-code="4" oncvpsp-xc-type="GGA -- Perdew-Burke-Ernzerhof" />
<libxc-info number-of-functionals="2">
<functional name="Perdew, Burke &amp; Ernzerhof (GGA)" type="exchange" id="101" />
<functional name="Perdew, Burke &amp; Ernzerhof (GGA)" type="correlation"
 id="130" />
</libxc-info>
</exchange-correlation>
<valence-configuration total-valence-charge="17">
<shell n="3" l="s" occupation="2" />
<shell n="3" l="p" occupation="6" />
<shell n="3" l="d" occupation="7" />
<shell n="4" l="s" occupation="2" />
</valence-configuration>
</pseudo-atom-spec>
<grid npts="457">
<annotation type="sampled from oncvpsp log grid"
 recipe="r(i:1..N) = r1*exp(a*(i-1)) + r=0; resampled"
 recipe-cont="r1: scale; a: step" scale="0.185185185185E-04"
 step="0.119285708653E-01" delta="0.500000000000E-02" rmax="44.1384555144" />
<grid-data>
  0.000000000000E+00  5.040192420950E-03  1.006738882075E-02  1.510268858140E-02
  2.010881910914E-02  2.522413632811E-02  3.052843244760E-02  3.564931321503E-02
  4.113555087463E-02  4.634708694971E-02  5.159968556889E-02  5.676637413542E-02
  6.245040443473E-02  6.788891108236E-02  7.292592018673E-02  7.833664953955E-02
  8.414882726703E-02  8.932039405154E-02  9.480979180144E-02  1.006365535764E-01
  1.068214128868E-01  1.120418749708E-01  1.175174659061E-01  1.232606540777E-01
  1.292845172121E-01  1.356027721566E-01  1.422298061135E-01  1.474117681829E-01
  1.527825284489E-01  1.583489655335E-01  1.641182086729E-01  1.700976468475E-01
  1.762949382462E-01  1.827180200740E-01  1.893751187181E-01  1.962747602834E-01
  2.034257815129E-01  2.108373411047E-01  2.159277978683E-01  2.211411586201E-01
  2.264803907538E-01  2.319485333081E-01  2.375486986963E-01  2.432840744777E-01
  2.491579251718E-01  2.551735941172E-01  2.613345053736E-01  2.676441656713E-01
  2.741061664073E-01  2.807241856890E-01  2.875019904283E-01  2.944434384852E-01
  3.015524808640E-01  3.088331639619E-01  3.162896318726E-01  3.239261287446E-01
  3.317470011970E-01  3.397567007939E-01  3.479597865779E-01  3.563609276650E-01
  3.649649059025E-01  3.737766185906E-01  3.828010812699E-01  3.920434305761E-01
  4.015089271639E-01  4.112029587013E-01  4.211310429362E-01  4.261846154515E-01
  4.312988308369E-01  4.364744168069E-01  4.417121098086E-01  4.470126551263E-01
  4.523768069878E-01  4.578053286717E-01  4.632989926157E-01  4.688585805271E-01
  4.744848834935E-01  4.801787020954E-01  4.859408465205E-01  4.917721366788E-01
  4.976734023189E-01  5.036454831467E-01  5.096892289445E-01  5.158054996918E-01
  5.219951656881E-01  5.282591076764E-01  5.345982169685E-01  5.410133955721E-01
  5.475055563190E-01  5.540756229948E-01  5.607245304708E-01  5.674532248364E-01
  5.742626635345E-01  5.811538154969E-01  5.881276612828E-01  5.951851932182E-01
  6.023274155368E-01  6.095553445233E-01  6.168700086576E-01  6.242724487615E-01
  6.317637181466E-01  6.393448827644E-01  6.470170213575E-01  6.547812256138E-01
  6.626386003212E-01  6.705902635250E-01  6.786373466873E-01  6.867809948476E-01
  6.950223667858E-01  7.033626351872E-01  7.118029868094E-01  7.203446226511E-01
  7.289887581230E-01  7.377366232204E-01  7.465894626991E-01  7.555485362515E-01
  7.646151186865E-01  7.737905001107E-01  7.830759861121E-01  7.924728979454E-01
  8.019825727207E-01  8.116063635934E-01  8.213456399565E-01  8.312017876360E-01
  8.411762090876E-01  8.512703235967E-01  8.614855674798E-01  8.718233942896E-01
  8.822852750211E-01  8.928726983213E-01  9.035871707012E-01  9.144302167496E-01
  9.254033793506E-01  9.365082199028E-01  9.477463185416E-01  9.591192743641E-01
  9.706287056565E-01  9.822762501244E-01  9.940635651259E-01  1.005992327907E+00
  1.018064235842E+00  1.030281006672E+00  1.042644378752E+00  1.055156111297E+00
  1.067817984633E+00  1.080631800449E+00  1.093599382054E+00  1.106722574639E+00
  1.120003245534E+00  1.133443284481E+00  1.147044603895E+00  1.160809139141E+00
  1.174738848811E+00  1.188835714997E+00  1.203101743577E+00  1.217538964500E+00
  1.232149432074E+00  1.246935225258E+00  1.261898447962E+00  1.277041229337E+00
  1.292365724089E+00  1.307874112778E+00  1.323568602132E+00  1.339451425357E+00
  1.355524842461E+00  1.371791140571E+00  1.388252634258E+00  1.404911665869E+00
  1.421770605859E+00  1.438831853130E+00  1.456097835367E+00  1.473571009392E+00
  1.491253861504E+00  1.509148907842E+00  1.527258694736E+00  1.545585799073E+00
  1.564132828662E+00  1.582902422606E+00  1.601897251677E+00  1.621120018697E+00
  1.640573458922E+00  1.660260340429E+00  1.680183464514E+00  1.700345666088E+00
  1.720749814081E+00  1.741398811850E+00  1.762295597592E+00  1.783443144764E+00
  1.804844462501E+00  1.826502596051E+00  1.848420627203E+00  1.870601674730E+00
  1.893048894827E+00  1.915765481564E+00  1.938754667343E+00  1.962019723351E+00
  1.985563960032E+00  2.009390727552E+00  2.033503416283E+00  2.057905457278E+00
  2.082600322765E+00  2.107591526639E+00  2.132882624958E+00  2.158477216458E+00
  2.184378943055E+00  2.210591490372E+00  2.237118588256E+00  2.263964011315E+00
  2.291131579451E+00  2.318625158405E+00  2.346448660305E+00  2.374606044229E+00
  2.403101316760E+00  2.431938532561E+00  2.461121794952E+00  2.490655256491E+00
  2.520543119569E+00  2.550789637004E+00  2.581399112648E+00  2.612375902000E+00
  2.643724412824E+00  2.675449105778E+00  2.707554495047E+00  2.740045148987E+00
  2.772925690775E+00  2.806200799065E+00  2.839875208653E+00  2.873953711157E+00
  2.908441155691E+00  2.943342449559E+00  2.978662558954E+00  3.014406509662E+00
  3.050579387777E+00  3.087186340431E+00  3.124232576516E+00  3.161723367434E+00
  3.199664047843E+00  3.238060016417E+00  3.276916736614E+00  3.316239737454E+00
  3.356034614303E+00  3.396307029675E+00  3.437062714031E+00  3.478307466599E+00
  3.520047156199E+00  3.562287722073E+00  3.605035174738E+00  3.648295596835E+00
  3.692075143997E+00  3.736380045725E+00  3.781216606273E+00  3.826591205549E+00
  3.872510300015E+00  3.918980423615E+00  3.966008188699E+00  4.013600286963E+00
  4.061763490407E+00  4.110504652292E+00  4.159830708119E+00  4.209748676617E+00
  4.260265660736E+00  4.311388848665E+00  4.363125514849E+00  4.415483021027E+00
  4.468468817279E+00  4.522090443087E+00  4.576355528404E+00  4.631271794745E+00
  4.686847056281E+00  4.743089220957E+00  4.800006291608E+00  4.857606367108E+00
  4.915897643513E+00  4.974888415235E+00  5.034587076218E+00  5.095002121133E+00
  5.156142146586E+00  5.218015852345E+00  5.280632042573E+00  5.343999627084E+00
  5.408127622609E+00  5.473025154080E+00  5.538701455929E+00  5.605165873401E+00
  5.672427863881E+00  5.740496998248E+00  5.809382962227E+00  5.879095557774E+00
  5.949644704467E+00  6.021040440921E+00  6.093292926212E+00  6.166412441326E+00
  6.240409390622E+00  6.315294303310E+00  6.391077834949E+00  6.467770768969E+00
  6.545384018196E+00  6.623928626415E+00  6.703415769932E+00  6.783856759171E+00
  6.865263040281E+00  6.947646196764E+00  7.031017951125E+00  7.115390166539E+00
  7.200774848537E+00  7.287184146720E+00  7.374630356480E+00  7.463125920758E+00
  7.552683431807E+00  7.643315632989E+00  7.735035420585E+00  7.827855845632E+00
  7.921790115779E+00  8.016851597169E+00  8.113053816335E+00  8.210410462131E+00
  8.308935387676E+00  8.408642612329E+00  8.509546323676E+00  8.611660879561E+00
  8.715000810115E+00  8.819580819837E+00  8.925415789675E+00  9.032520779151E+00
  9.140911028501E+00  9.250601960843E+00  9.361609184373E+00  9.473948494585E+00
  9.587635876520E+00  9.702687507039E+00  9.819119757123E+00  9.936949194208E+00
  1.005619258454E+01  1.017686689555E+01  1.029898929830E+01  1.042257716988E+01
  1.054764809592E+01  1.067421987307E+01  1.080231051155E+01  1.093193823768E+01
  1.106312149654E+01  1.119587895450E+01  1.133022950195E+01  1.146619225597E+01
  1.160378656304E+01  1.174303200180E+01  1.188394838582E+01  1.202655576645E+01
  1.217087443565E+01  1.231692492888E+01  1.246472802802E+01  1.261430476436E+01
  1.276567642153E+01  1.291886453859E+01  1.307389091305E+01  1.323077760401E+01
  1.338954693526E+01  1.355022149848E+01  1.371282415646E+01  1.387737804634E+01
  1.404390658290E+01  1.421243346189E+01  1.438298266343E+01  1.455557845540E+01
  1.473024539686E+01  1.490700834162E+01  1.508589244172E+01  1.526692315102E+01
  1.545012622884E+01  1.563552774358E+01  1.582315407650E+01  1.601303192542E+01
  1.620518830853E+01  1.639965056823E+01  1.659644637505E+01  1.679560373155E+01
  1.699715097633E+01  1.720111678804E+01  1.740753018950E+01  1.761642055177E+01
  1.782781759840E+01  1.804175140958E+01  1.825825242649E+01  1.847735145561E+01
  1.869907967308E+01  1.892346862915E+01  1.915055025270E+01  1.938035685574E+01
  1.961292113800E+01  1.984827619166E+01  2.008645550596E+01  2.032749297203E+01
  2.057142288770E+01  2.081827996235E+01  2.106809932190E+01  2.132091651376E+01
  2.157676751193E+01  2.183568872207E+01  2.209771698673E+01  2.236288959057E+01
  2.263124426566E+01  2.290281919685E+01  2.317765302721E+01  2.345578486354E+01
  2.373725428190E+01  2.402210133328E+01  2.431036654928E+01  2.460209094787E+01
  2.489731603925E+01  2.519608383172E+01  2.549843683770E+01  2.580441807975E+01
  2.611407109671E+01  2.642743994987E+01  2.674456922927E+01  2.706550406002E+01
  2.739029010874E+01  2.771897359004E+01  2.805160127312E+01  2.838822048840E+01
  2.872887913426E+01  2.907362568387E+01  2.942250919208E+01  2.977557930239E+01
  3.013288625401E+01  3.049448088906E+01  3.086041465973E+01  3.123073963565E+01
  3.160550851128E+01  3.198477461341E+01  3.236859190877E+01  3.275701501168E+01
  3.315009919182E+01  3.354790038212E+01  3.395047518670E+01  3.435788088895E+01
  3.477017545961E+01  3.518741756513E+01  3.560966657591E+01  3.603698257482E+01
  3.646942636572E+01  3.690705948211E+01  3.734994419589E+01  3.779814352624E+01
  3.825172124856E+01  3.871074190354E+01  3.917527080638E+01  3.964537405606E+01
  4.012111854473E+01  4.060257196727E+01  4.108980283088E+01  4.158288046485E+01
  4.208187503042E+01  4.258685753079E+01  4.309789982116E+01  4.361507461901E+01
  4.413845551444E+01
</grid-data>
</grid>
<valence-charge total-charge="17" is-unscreening-charge="yes"
 rescaled-to-z-pseudo="no">
<radfunc>
<data npts="457">
  9.774056013926E+00  9.782603776661E+00  9.808152124709E+00  9.850763023723E+00
  9.909980762616E+00  9.987799729831E+00  1.008690305151E+01  1.020028020154E+01
  1.034093263462E+01  1.049280420637E+01  1.066374094832E+01  1.084923756559E+01
  1.107300202894E+01  1.130620911806E+01  1.153867258084E+01  1.180580936133E+01
  1.211259106040E+01  1.240255793962E+01  1.272756510566E+01  1.309159639564E+01
  1.349901843294E+01  1.385938610894E+01  1.425319389534E+01  1.468323780150E+01
  1.515247909658E+01  1.566403733437E+01  1.622117798246E+01  1.667098349941E+01
  1.714980442706E+01  1.765913289391E+01  1.820047302514E+01  1.877532752239E+01
  1.938518130631E+01  2.003148178115E+01  2.071561523543E+01  2.143887884783E+01
  2.220244772511E+01  2.300733636241E+01  2.356729373952E+01  2.414615896803E+01
  2.474405244790E+01  2.536102804592E+01  2.599706406434E+01  2.665205344965E+01
  2.732579321614E+01  2.801797306532E+01  2.872816319126E+01  2.945580127224E+01
  3.020017866293E+01  3.096042581782E+01  3.173549699637E+01  3.252415432419E+01
  3.332495131262E+01  3.413621597160E+01  3.495603368850E+01  3.578223008846E+01
  3.661235414058E+01  3.744366182825E+01  3.827310076194E+01  3.909729617773E+01
  3.991253883451E+01  4.071477539613E+01  4.149960196009E+01  4.226226147008E+01
  4.299764582246E+01  4.370030354373E+01  4.436445397314E+01  4.468019764639E+01
  4.498400892543E+01  4.527508367808E+01  4.555260282924E+01  4.581573383523E+01
  4.606363232806E+01  4.629544393597E+01  4.651030628628E+01  4.670735119585E+01
  4.688570705375E+01  4.704450139954E+01  4.718286369994E+01  4.729992832498E+01
  4.739483772368E+01  4.746674579766E+01  4.751482146925E+01  4.753825243908E+01
  4.753624912590E+01  4.750804877906E+01  4.745291975218E+01  4.737016592339E+01
  4.725913124542E+01  4.711920440577E+01  4.694982357423E+01  4.675048121234E+01
  4.652072891598E+01  4.626018225952E+01  4.596852560680E+01  4.564551685113E+01
  4.529099204380E+01  4.490486986768E+01  4.448715591010E+01  4.403794668681E+01
  4.355743336710E+01  4.304590514839E+01  4.250375222787E+01  4.193146831801E+01
  4.132965265308E+01  4.069901143456E+01  4.004035866497E+01  3.935461632186E+01
  3.864281382728E+01  3.790608677191E+01  3.714567485837E+01  3.636291903424E+01
  3.555925779228E+01  3.473622262358E+01  3.389543261809E+01  3.303858821673E+01
  3.216746412994E+01  3.128390144858E+01  3.038979898477E+01  2.948710389242E+01
  2.857780162910E+01  2.766390533330E+01  2.674744470270E+01  2.583045447054E+01
  2.491496258731E+01  2.400297822465E+01  2.309647972600E+01  2.219740263505E+01
  2.130762793720E+01  2.042897065180E+01  1.956316891261E+01  1.871187367131E+01
  1.787663915397E+01  1.705891419218E+01  1.626003454036E+01  1.548121627755E+01
  1.472355037654E+01  1.398799850581E+01  1.327539011014E+01  1.258642079513E+01
  1.192165201891E+01  1.128151207238E+01  1.066629830682E+01  1.007618054677E+01
  9.511205605786E+00  8.971302804537E+00  8.456290375177E+00  7.965882623221E+00
  7.499697708896E+00  7.057265904494E+00  6.638038182719E+00  6.241394993512E+00
  5.866655093328E+00  5.513084300980E+00  5.179904067720E+00  4.866300198205E+00
  4.571433031208E+00  4.294448626763E+00  4.034485592175E+00  3.790681515226E+00
  3.562178926985E+00  3.348130814731E+00  3.147705633825E+00  2.960091820112E+00
  2.784501803385E+00  2.620175528097E+00  2.466383490681E+00  2.322429304585E+00
  2.187651804546E+00  2.061426700996E+00  1.943167794268E+00  1.832327756628E+00
  1.728398488605E+00  1.630911054924E+00  1.539435204818E+00  1.453578481917E+00
  1.372984930428E+00  1.297332135938E+00  1.226322971405E+00  1.159674627596E+00
  1.097118376740E+00  1.038399154938E+00  9.832752079819E-01  9.315177124447E-01
  8.829103762542E-01  8.372490227245E-01  7.943411617374E-01  7.540055515097E-01
  7.160717541044E-01  6.803796875773E-01  6.467791773762E-01  6.151295093519E-01
  5.852989864775E-01  5.571644911286E-01  5.306110545405E-01  5.055314348372E-01
  4.818257048202E-01  4.594008505153E-01  4.381703813037E-01  4.180539523053E-01
  3.989769995428E-01  3.808703882918E-01  3.636700749088E-01  3.473167823327E-01
  3.317556893680E-01  3.169361337809E-01  3.028113291700E-01  2.893380955133E-01
  2.764766032370E-01  2.641901306038E-01  2.524448341719E-01  2.412095320399E-01
  2.304554995559E-01  2.201562771393E-01  2.102874898389E-01  2.008266782288E-01
  1.917531402248E-01  1.830477833930E-01  1.746929873092E-01  1.666724755253E-01
  1.589711966912E-01  1.515752143856E-01  1.444716052079E-01  1.376483646913E-01
  1.310943206036E-01  1.247990532117E-01  1.187528220972E-01  1.129464991225E-01
  1.073715071607E-01  1.020197642174E-01  9.688363258600E-02  9.195587269785E-02
  8.722960133876E-02  8.269825392562E-02  7.835555054934E-02  7.419546550813E-02
  7.021220007091E-02  6.640015822624E-02  6.275392518750E-02  5.926824843942E-02
  5.593802112542E-02  5.275826758781E-02  4.972413088569E-02  4.683086212632E-02
  4.407381145643E-02  4.144842056904E-02  3.895021658999E-02  3.657480721427E-02
  3.431787697867E-02  3.217518453503E-02  3.014256083614E-02  2.821590811499E-02
  2.639119955858E-02  2.466447957838E-02  2.303186458371E-02  2.148954416834E-02
  2.003378262501E-02  1.866092070671E-02  1.736737755900E-02  1.614965275212E-02
  1.500432834785E-02  1.392807094144E-02  1.291763362526E-02  1.196985782714E-02
  1.108167498265E-02  1.025010800724E-02  9.472272540142E-03  8.745377938684E-03
  8.066728007024E-03  7.433721449396E-03  6.843852042932E-03  6.294708530003E-03
  5.783974234316E-03  5.309426408804E-03  4.868935326605E-03  4.460463129224E-03
  4.082062448181E-03  3.731874818219E-03  3.408128901431E-03  3.109138542479E-03
  2.833300675544E-03  2.579093103673E-03  2.345072170943E-03  2.129870347283E-03
  1.932193744991E-03  1.750819584963E-03  1.584593629468E-03  1.432427596979E-03
  1.293296573186E-03  1.166236430862E-03  1.050341269789E-03  9.447608865142E-04
  8.486982822971E-04  7.614072163107E-04  6.821898098911E-04  6.103942065356E-04
  5.454122913279E-04  4.866774725913E-04  4.336625278130E-04  3.858775152464E-04
  3.428677520799E-04  3.042118596417E-04  2.695198757923E-04  2.384314344077E-04
  2.106140116842E-04  1.857612388663E-04  1.635912809114E-04  1.438452805440E-04
  1.262858671039E-04  1.106957295546E-04  9.687625297477E-05  8.464621781108E-05
  7.384056111523E-05  6.430919892064E-05  5.591590883838E-05  4.853727186319E-05
  4.206167228424E-05  3.638835449194E-05  3.142653536486E-05  2.709457081243E-05
  2.331917494268E-05  2.003469022165E-05  1.718240689628E-05  1.470992986611E-05
  1.257059111405E-05  1.072290574351E-05  9.130069619392E-06  7.759496574941E-06
  6.582393124681E-06  5.573368615971E-06  4.710078757825E-06  3.972900484388E-06
  3.344636141405E-06  2.810245025900E-06  2.356600361079E-06  1.972269848917E-06
  1.647318010140E-06  1.373128594788E-06  1.142245434264E-06  9.482301567956E-07
  7.855353113978E-07  6.493915901315E-07  5.357077764748E-07  4.409819249609E-07
  3.622231028538E-07  2.968826355833E-07  2.427936633646E-07  1.981181413896E-07
  1.613005199808E-07  1.310273706126E-07  1.061922837557E-07  8.586542803214E-08
  6.926721925677E-08  5.574560298453E-08  4.475650521098E-08  3.584705296541E-08
  2.864120980458E-08  2.282751080112E-08  1.814861768617E-08  1.439244753337E-08
  1.138465794962E-08  8.982298369350E-09  7.068460933839E-09  5.547785780285E-09
  4.342694565747E-09  3.390242905741E-09  2.639497303967E-09  2.049355269514E-09
  1.586738833245E-09  1.225101736763E-09  9.422487917440E-10  7.233906981622E-10
  5.537520710457E-10  4.226476777072E-10  3.216234061626E-10  2.440102038468E-10
  1.845629145625E-10  1.391687476146E-10  1.046126792063E-10  7.838925537201E-11
  5.855209306135E-11  4.359390998203E-11  3.235119707279E-11  2.392871723133E-11
  1.763990255925E-11  1.295995796322E-11  9.489085669827E-12  6.923743857174E-12
  5.034260957356E-12  3.647460379352E-12  2.633221284497E-12  1.894120460285E-12
  1.357477405046E-12  9.692670958434E-13  6.894789371558E-13  4.885913717016E-13
  3.449039552984E-13  2.425259612962E-13  1.698657449419E-13  1.185005801458E-13
  8.233444564449E-14  5.697287595952E-14  3.926078822857E-14  2.694217940055E-14
  1.841058325482E-14  1.252683895516E-14  8.486572024138E-15  5.724234700132E-15
  3.843917626373E-15  2.569680498369E-15  1.710051635650E-15  1.132767282209E-15
  7.468778750083E-16  4.901304369870E-16  3.201123224411E-16  2.080639851594E-16
  1.345767668099E-16  8.661567092275E-17  5.546899516978E-17  3.534316815724E-17
  2.240451880922E-17  1.412908072218E-17  8.863665699715E-18  5.531040218601E-18
  3.432943182167E-18  2.119164846517E-18  1.300986622630E-18  7.942590664649E-19
  4.821739468961E-19  2.910503380888E-19  1.746728979639E-19  1.042187532866E-19
  6.181568193161E-20  3.644626552773E-20  2.135884353025E-20  1.244059379231E-20
  7.201302954389E-21  4.142428827264E-21  2.367774855701E-21  0.000000000000E+00
  0.000000000000E+00  0.000000000000E+00  0.000000000000E+00  0.000000000000E+00
  0.000000000000E+00  0.000000000000E+00  0.000000000000E+00  0.000000000000E+00
  0.000000000000E+00  0.000000000000E+00  0.000000000000E+00  0.000000000000E+00
  0.000000000000E+00  0.000000000000E+00  0.000000000000E+00  0.000000000000E+00
  0.000000000000E+00
</data>
</radfunc>
</valence-charge>
<pseudocore-charge matching-radius="0.401508927164"
 number-of-continuous-derivatives="4">
<annotation model-charge-form="Teter function with specified parameters" />
<radfunc>
<data npts="290">
  2.659184795816E+02  2.658776203056E+02  2.657554986850E+02  2.655518262148E+02
  2.652687935895E+02  2.648968867263E+02  2.644233091738E+02  2.638815899417E+02
  2.632096469012E+02  2.624842256805E+02  2.616678830165E+02  2.607821741364E+02
  2.597139672986E+02  2.586009319291E+02  2.574916860046E+02  2.562172693867E+02
  2.547540660358E+02  2.533713752252E+02  2.518219271775E+02  2.500868055984E+02
  2.481452688507E+02  2.464282627354E+02  2.445521816949E+02  2.425036952114E+02
  2.402686505746E+02  2.378320876087E+02  2.351782719124E+02  2.330354656594E+02
  2.307540334239E+02  2.283266207322E+02  2.257457321438E+02  2.230037726485E+02
  2.200930978327E+02  2.170060738640E+02  2.137351483856E+02  2.102729334388E+02
  2.066123015358E+02  2.027464959685E+02  2.000521907578E+02  1.972621980662E+02
  1.943749603968E+02  1.913890884681E+02  1.883033847371E+02  1.851168684426E+02
  1.818288021488E+02  1.784387197451E+02  1.749464558350E+02  1.713521764106E+02
  1.676564106834E+02  1.638600838936E+02  1.599645508849E+02  1.559716301772E+02
  1.518836382195E+02  1.477034234465E+02  1.434343996985E+02  1.390805785006E+02
  1.346465996239E+02  1.301377592811E+02  1.255600352351E+02  1.209201080250E+02
  1.162253774446E+02  1.114839733408E+02  1.067047597424E+02  1.018973312820E+02
  9.707200084097E+01  9.223977733616E+01  8.741233257603E+01  8.500422008613E+01
  8.260195615739E+01  8.020716400268E+01  7.782149744795E+01  7.544663835562E+01
  7.308429381776E+01  7.073619311593E+01  6.840408444549E+01  6.608973140347E+01
  6.379490924030E+01  6.152140087706E+01  5.927099269164E+01  5.704547007867E+01
  5.484661278985E+01  5.267619006343E+01  5.053595555331E+01  4.842764207052E+01
  4.635295615196E+01  4.431357247374E+01  4.231112812858E+01  4.034721678942E+01
  3.842338278371E+01  3.654111510542E+01  3.470184139427E+01  3.290692191431E+01
  3.115764356615E+01  2.945521396970E+01  2.780075565643E+01  2.619530041222E+01
  2.463978381370E+01  2.313504000280E+01  2.168179674527E+01  2.028067082030E+01
  1.893216378879E+01  1.763665818824E+01  1.639441420177E+01  1.520556684839E+01
  1.407012374003E+01  1.298796344927E+01  1.195883452892E+01  1.098235522164E+01
  1.005801389405E+01  9.185170224810E+00  8.363057171475E+00  7.590783734493E+00
  6.867338530364E+00  6.191594178511E+00  5.562312498549E+00  4.978150506080E+00
  4.437667186168E+00  3.939331014195E+00  3.481528184114E+00  3.062571494164E+00
  2.680709830214E+00  2.334138177035E+00  2.021008078280E+00  1.739438456861E+00
  1.487526699002E+00  1.263359897720E+00  1.065026144982E+00  8.906257566046E-01
  7.382823102477E-01  6.061533747698E-01  4.924408090238E-01  3.954005099133E-01
  3.133514934155E-01  2.446841983344E-01  1.878679108414E-01  1.414572183791E-01
  1.040974141813E-01  7.452878838402E-02  5.158975828558E-02  3.421880850920E-02
  2.145523132829E-02  1.243867785544E-02  6.407551749867E-03  2.696298085784E-03
  7.316605313711E-04  2.799946974193E-05  1.817815938579E-04  8.653672735991E-04
  1.820235096675E-03  2.849792940604E-03  3.811931321075E-03  4.611477249580E-03
  5.192705194245E-03  5.532055871298E-03  5.631203539951E-03  5.510598420712E-03
  5.203593152955E-03  4.751241353338E-03  4.197832981011E-03  3.587206137507E-03
  2.959849014690E-03  2.350779914046E-03  1.788168592071E-03  1.292639628885E-03
  8.771790032061E-04  5.475494133432E-04  3.031087825636E-04  1.379203004558E-04
  4.204151540744E-05  2.884379733025E-06  6.547455031683E-06  3.903513485608E-05
  8.729590622242E-05  1.400313086289E-04  1.882481588425E-04  2.255475043309E-04
  2.481633553066E-04  2.547813155061E-04  2.461807470361E-04  2.247532793526E-04
  1.939548403761E-04  1.577478470102E-04  1.200850235039E-04  8.447716880020E-05
  5.367504054138E-05  2.948158086919E-05  1.269633477964E-05  3.180479512889E-06
  1.965264968949E-08  1.753755944328E-06  6.638792302134E-06  1.290581275599E-05
  1.898600216181E-05  2.367817339178E-05  2.624445992109E-05  2.643053529881E-05
  2.441688602862E-05  2.071623479489E-05  1.603810620963E-05  1.114408098285E-05
  6.716305721291E-06  3.257629051443E-06  1.035097888837E-06  7.059701462469E-08
  0.000000000000E+00  0.000000000000E+00  0.000000000000E+00  0.000000000000E+00
  0.000000000000E+00  0.000000000000E+00  0.000000000000E+00  0.000000000000E+00
  0.000000000000E+00  0.000000000000E+00  0.000000000000E+00  0.000000000000E+00
  0.000000000000E+00  0.000000000000E+00  0.000000000000E+00  0.000000000000E+00
  0.000000000000E+00  0.000000000000E+00  0.000000000000E+00  0.000000000000E+00
  0.000000000000E+00  0.000000000000E+00  0.000000000000E+00  0.000000000000E+00
  0.000000000000E+00  0.000000000000E+00  0.000000000000E+00  0.000000000000E+00
  0.000000000000E+00  0.000000000000E+00  0.000000000000E+00  0.000000000000E+00
  0.000000000000E+00  0.000000000000E+00  0.000000000000E+00  0.000000000000E+00
  0.000000000000E+00  0.000000000000E+00  0.000000000000E+00  0.000000000000E+00
  0.000000000000E+00  0.000000000000E+00  0.000000000000E+00  0.000000000000E+00
  0.000000000000E+00  0.000000000000E+00  0.000000000000E+00  0.000000000000E+00
  0.000000000000E+00  0.000000000000E+00  0.000000000000E+00  0.000000000000E+00
  0.000000000000E+00  0.000000000000E+00  0.000000000000E+00  0.000000000000E+00
  0.000000000000E+00  0.000000000000E+00  0.000000000000E+00  0.000000000000E+00
  0.000000000000E+00  0.000000000000E+00  0.000000000000E+00  0.000000000000E+00
  0.000000000000E+00  0.000000000000E+00  0.000000000000E+00  0.000000000000E+00
  0.000000000000E+00  0.000000000000E+00  0.000000000000E+00  0.000000000000E+00
  0.000000000000E+00  0.000000000000E+00  0.000000000000E+00  0.000000000000E+00
  0.000000000000E+00  0.000000000000E+00  0.000000000000E+00  0.000000000000E+00
  0.000000000000E+00  0.000000000000E+00  0.000000000000E+00  0.000000000000E+00
  0.000000000000E+00  0.000000000000E+00
</data>
</radfunc>
</pseudocore-charge>
<semilocal-potentials set="scalar_relativistic">
<slps n="3" l="s" rc="1.20310174358">
<radfunc>
<data npts="290">
 -1.913626988965E+01 -1.913755552292E+01 -1.914139750294E+01 -1.914780333284E+01
 -1.915670151921E+01 -1.916838734602E+01 -1.918325719552E+01 -1.920025204232E+01
 -1.922131064523E+01 -1.924401833990E+01 -1.926953869340E+01 -1.929718747918E+01
 -1.933047767337E+01 -1.936510023761E+01 -1.939953915635E+01 -1.943902498760E+01
 -1.948425288198E+01 -1.952688661666E+01 -1.957454007066E+01 -1.962775048287E+01
 -1.968709825181E+01 -1.973941263200E+01 -1.979639070981E+01 -1.985838584587E+01
 -1.992576513725E+01 -1.999890692408E+01 -2.007819743294E+01 -2.014193488004E+01
 -2.020951420483E+01 -2.028109713387E+01 -2.035684128070E+01 -2.043689795902E+01
 -2.052140966173E+01 -2.061050717547E+01 -2.070430630075E+01 -2.080290414823E+01
 -2.090637498372E+01 -2.101476559690E+01 -2.108976772900E+01 -2.116695852619E+01
 -2.124632465018E+01 -2.132784357096E+01 -2.141148267477E+01 -2.149719832674E+01
 -2.158493488949E+01 -2.167462369938E+01 -2.176618200252E+01 -2.185951185364E+01
 -2.195449898128E+01 -2.205101162378E+01 -2.214889934126E+01 -2.224799180968E+01
 -2.234809760412E+01 -2.244900297927E+01 -2.255047065640E+01 -2.265223862707E+01
 -2.275401898514E+01 -2.285549679979E+01 -2.295632904377E+01 -2.305614359224E+01
 -2.315453830932E+01 -2.325108024048E+01 -2.334530493096E+01 -2.343671589155E+01
 -2.352478423480E+01 -2.360894850636E+01 -2.368861473750E+01 -2.372656665063E+01
 -2.376315674652E+01 -2.379830181414E+01 -2.383191671817E+01 -2.386391443447E+01
 -2.389420609105E+01 -2.392270101487E+01 -2.394930678469E+01 -2.397392929022E+01
 -2.399647279790E+01 -2.401684002337E+01 -2.403493221115E+01 -2.405064922153E+01
 -2.406388962505E+01 -2.407455080482E+01 -2.408252906679E+01 -2.408771975830E+01
 -2.409001739508E+01 -2.408931579691E+01 -2.408550823215E+01 -2.407848757117E+01
 -2.406814644910E+01 -2.405437743778E+01 -2.403707322718E+01 -2.401612681638E+01
 -2.399143171412E+01 -2.396288214912E+01 -2.393037329008E+01 -2.389380147546E+01
 -2.385306445315E+01 -2.380806162988E+01 -2.375869433041E+01 -2.370486606663E+01
 -2.364648281640E+01 -2.358345331222E+01 -2.351568933972E+01 -2.344310604606E+01
 -2.336562225829E+01 -2.328316081174E+01 -2.319564888879E+01 -2.310301836814E+01
 -2.300520618499E+01 -2.290215470268E+01 -2.279381209628E+01 -2.268013274904E+01
 -2.256107766257E+01 -2.243661488198E+01 -2.230671993737E+01 -2.217137630339E+01
 -2.203057587882E+01 -2.188431948859E+01 -2.173261741084E+01 -2.157548993232E+01
 -2.141296793555E+01 -2.124509352203E+01 -2.107192067602E+01 -2.089351597427E+01
 -2.070995934759E+01 -2.052134490100E+01 -2.032778179990E+01 -2.012939523072E+01
 -1.992632744513E+01 -1.971873889848E+01 -1.950680949354E+01 -1.929073994233E+01
 -1.907075325967E+01 -1.884709640332E+01 -1.862004207670E+01 -1.838989071113E+01
 -1.815697264495E+01 -1.792165051733E+01 -1.768432189373E+01 -1.744542213854E+01
 -1.720542754720E+01 -1.696485874542E+01 -1.672428435538E+01 -1.648432491835E+01
 -1.624565704888E+01 -1.600901777671E+01 -1.577520900876E+01 -1.554510201437E+01
 -1.531964180237E+01 -1.509985121937E+01 -1.488683455651E+01 -1.468178040846E+01
 -1.448596348844E+01 -1.430074492121E+01 -1.412757253236E+01 -1.396193187393E+01