<?xml version="1.0" encoding="UTF-8" ?>
<psml version="1.1" energy_unit="hartree" length_unit="bohr"
 uuid="a32c7c20-43c5-11e8-7fe1-668b97efb80e"
 xmlns="http://esl.cecam.org/PSML/ns/1.1">
<provenance creator="ONCVPSP-3.3.0+psml-3.3.0-73 (fully-relativistic)"
 date="2018-04-19">
<annotation action="semilocal-pseudopotential-generation"
 action-cont="projectors-generation" />
<input-file name="oncvpsp-input">
<![CDATA[# atsym z nc nv iexc psfile
Zr 40 6 4 4 both
# n l f
1 0 2.0
2 0 2.0
2 1 6.0
3 0 2.0
3 1 6.0
3 2 10.0
4 0 2.0
4 1 6.0
4 2 2.0
5 0 2.0
# lmax
2
# l rc ep ncon nbas qcut
0 1.55 0.0 4 8 7.4
1 1.55 0.0 4 8 8.0
2 1.5 0.0 4 8 7.8
# lloc lpopt rc5 dvloc0
4 5 1.45 0.0
# l nproj debl
0 2 1.0
1 2 2.0
2 2 2.0
# icmod fcfact
3 5 1.35
# epsh1 epsh2 depsh
-12.0 12.0 0.02
# rlmax drl
6.0 0.01
 0
]]>
</input-file>
</provenance>
<pseudo-atom-spec atomic-label="Zr" atomic-number="40" z-pseudo="12"
 flavor="Hamann&apos;s oncvpsp" relativity="dirac" spin-dft="no"
 core-corrections="yes">
<annotation pseudo-energy="-47.0983736947" />
<exchange-correlation>
<annotation oncvpsp-xc-code="4" oncvpsp-xc-type="GGA -- Perdew-Burke-Ernzerhof" />
<libxc-info number-of-functionals="2">
<functional name="Perdew, Burke &amp; Ernzerhof (GGA)" type="exchange" id="101" />
<functional name="Perdew, Burke &amp; Ernzerhof (GGA)" type="correlation"
 id="130" />
</libxc-info>
</exchange-correlation>
<valence-configuration total-valence-charge="12">
<shell n="4" l="s" occupation="2" />
<shell n="4" l="p" occupation="6" />
<shell n="4" l="d" occupation="2" />
<shell n="5" l="s" occupation="2" />
</valence-configuration>
</pseudo-atom-spec>
<grid npts="457">
<annotation type="sampled from oncvpsp log grid"
 recipe="r(i:1..N) = r1*exp(a*(i-1)) + r=0; resampled"
 recipe-cont="r1: scale; a: step" scale="0.125000000000E-04"
 step="0.119285708653E-01" delta="0.500000000000E-02" rmax="44.1649575951" />
<grid-data>
  0.000000000000E+00  5.043218706865E-03  1.007343358937E-02  1.511175669823E-02
  2.012089306008E-02  2.523928167219E-02  3.054676265355E-02  3.567071815465E-02
  4.067218371481E-02  4.582501498060E-02  5.101844624570E-02  5.612693518305E-02
  6.174693831073E-02  6.712418346252E-02  7.296970714298E-02  7.838368526344E-02
  8.419935280047E-02  8.937402475208E-02  9.486671850454E-02  1.006969788457E-01
  1.068855517351E-01  1.121091483444E-01  1.175880269923E-01  1.233346635500E-01
  1.293621435963E-01  1.356841922146E-01  1.423152052457E-01  1.475002787239E-01
  1.528742637588E-01  1.584440431028E-01  1.642167502724E-01  1.701997786849E-01
  1.764007911272E-01  1.828277295701E-01  1.894888253401E-01  1.963926096616E-01
  2.035479245832E-01  2.109639343024E-01  2.160574475322E-01  2.212739385454E-01
  2.266163765177E-01  2.320878023123E-01  2.376913302113E-01  2.434301496880E-01
  2.493075272220E-01  2.553268081593E-01  2.614914186155E-01  2.678048674265E-01
  2.742707481457E-01  2.808927410889E-01  2.876746154297E-01  2.946202313447E-01
  3.017335422103E-01  3.090185968534E-01  3.164795418558E-01  3.241206239144E-01
  3.319461922582E-01  3.399607011241E-01  3.481687122920E-01  3.565748976816E-01
  3.651840420112E-01  3.740010455215E-01  3.830309267646E-01  3.922788254604E-01
  4.017500054223E-01  4.114498575532E-01  4.213839029140E-01  4.264405097490E-01
  4.315577958659E-01  4.367364894163E-01  4.419773272893E-01  4.472810552168E-01
  4.526484278794E-01  4.580802090140E-01  4.635771715221E-01  4.691400975804E-01
  4.747697787514E-01  4.804670160964E-01  4.862326202895E-01  4.920674117330E-01
  4.979722206738E-01  5.039478873219E-01  5.099952619697E-01  5.161152051134E-01
  5.223085875747E-01  5.285762906256E-01  5.349192061131E-01  5.413382365865E-01
  5.478342954255E-01  5.544083069706E-01  5.610612066543E-01  5.677939411341E-01
  5.746074684278E-01  5.815027580489E-01  5.884807911455E-01  5.955425606392E-01
  6.026890713669E-01  6.099213402233E-01  6.172403963060E-01  6.246472810616E-01
  6.321430484344E-01  6.397287650156E-01  6.474055101958E-01  6.551743763181E-01
  6.630364688340E-01  6.709929064600E-01  6.790448213375E-01  6.871933591935E-01
  6.954396795039E-01  7.037849556579E-01  7.122303751258E-01  7.207771396273E-01
  7.294264653028E-01  7.381795828865E-01  7.470377378811E-01  7.560021907357E-01
  7.650742170245E-01  7.742551076288E-01  7.835461689203E-01  7.929487229474E-01
  8.024641076228E-01  8.120936769142E-01  8.218388010372E-01  8.317008666496E-01
  8.416812770494E-01  8.517814523740E-01  8.620028298025E-01  8.723468637602E-01
  8.828150261253E-01  8.934088064388E-01  9.041297121160E-01  9.149792686614E-01
  9.259590198854E-01  9.370705281240E-01  9.483153744615E-01  9.596951589550E-01
  9.712115008625E-01  9.828660388728E-01  9.946604313393E-01  1.006596356515E+00
  1.018675512794E+00  1.030899618947E+00  1.043270414374E+00  1.055789659347E+00
  1.068459135259E+00  1.081280644882E+00  1.094256012621E+00  1.107387084772E+00
  1.120675729790E+00  1.134123838547E+00  1.147733324610E+00  1.161506124505E+00
  1.175444197999E+00  1.189549528375E+00  1.203824122715E+00  1.218270012188E+00
  1.232889252334E+00  1.247683923362E+00  1.262656130443E+00  1.277808004008E+00
  1.293141700056E+00  1.308659400457E+00  1.324363313262E+00  1.340255673021E+00
  1.356338741098E+00  1.372614805991E+00  1.389086183663E+00  1.405755217867E+00
  1.422624280481E+00  1.439695771847E+00  1.456972121109E+00  1.474455786562E+00
  1.492149256001E+00  1.510055047073E+00  1.528175707638E+00  1.546513816130E+00
  1.565071981923E+00  1.583852845706E+00  1.602859079855E+00  1.622093388813E+00
  1.641558509479E+00  1.661257211592E+00  1.681192298131E+00  1.701366605709E+00
  1.721783004978E+00  1.742444401037E+00  1.763353733850E+00  1.784513978656E+00
  1.805928146400E+00  1.827599284157E+00  1.849530475566E+00  1.871724841273E+00
  1.894185539369E+00  1.916915765841E+00  1.939918755031E+00  1.963197780091E+00
  1.986756153453E+00  2.010597227294E+00  2.034724394022E+00  2.059141086750E+00
  2.083850779791E+00  2.108856989148E+00  2.134163273018E+00  2.159773232294E+00
  2.185690511082E+00  2.211918797215E+00  2.238461822781E+00  2.265323364655E+00
  2.292507245031E+00  2.320017331971E+00  2.347857539955E+00  2.376031830434E+00
  2.404544212399E+00  2.433398742948E+00  2.462599527863E+00  2.492150722198E+00
  2.522056530864E+00  2.552321209235E+00  2.582949063745E+00  2.613944452510E+00
  2.645311785940E+00  2.677055527372E+00  2.709180193700E+00  2.741690356025E+00
  2.774590640297E+00  2.807885727980E+00  2.841580356716E+00  2.875679320997E+00
  2.910187472849E+00  2.945109722523E+00  2.980451039193E+00  3.016216451664E+00
  3.052411049083E+00  3.089039981672E+00  3.126108461453E+00  3.163621762990E+00
  3.201585224146E+00  3.240004246836E+00  3.278884297798E+00  3.318230909371E+00
  3.358049680284E+00  3.398346276447E+00  3.439126431764E+00  3.480395948946E+00
  3.522160700333E+00  3.564426628737E+00  3.607199748282E+00  3.650486145261E+00
  3.694291979004E+00  3.738623482752E+00  3.783486964545E+00  3.828888808120E+00
  3.874835473817E+00  3.921333499503E+00  3.968389501497E+00  4.016010175515E+00
  4.064202297621E+00  4.112972725193E+00  4.162328397895E+00  4.212276338670E+00
  4.262823654734E+00  4.313977538591E+00  4.365745269054E+00  4.418134212282E+00
  4.471151822830E+00  4.524805644704E+00  4.579103312440E+00  4.634052552190E+00
  4.689661182816E+00  4.745937117010E+00  4.802888362414E+00  4.860523022763E+00
  4.918849299036E+00  4.977875490624E+00  5.037609996512E+00  5.098061316470E+00
  5.159238052268E+00  5.221148908895E+00  5.283802695802E+00  5.347208328151E+00
  5.411374828089E+00  5.476311326026E+00  5.542027061938E+00  5.608531386682E+00
  5.675833763322E+00  5.743943768482E+00  5.812871093703E+00  5.882625546828E+00
  5.953217053390E+00  6.024655658030E+00  6.096951525927E+00  6.170114944238E+00
  6.244156323569E+00  6.319086199452E+00  6.394915233845E+00  6.471654216651E+00
  6.549314067251E+00  6.627905836058E+00  6.707440706091E+00  6.787929994564E+00
  6.869385154499E+00  6.951817776353E+00  7.035239589669E+00  7.119662464745E+00
  7.205098414322E+00  7.291559595294E+00  7.379058310437E+00  7.467607010162E+00
  7.557218294284E+00  7.647904913816E+00  7.739679772782E+00  7.832555930055E+00
  7.926546601216E+00  8.021665160430E+00  8.117925142355E+00  8.215340244064E+00
  8.313924326992E+00  8.413691418916E+00  8.514655715943E+00  8.616831584535E+00
  8.720233563549E+00  8.824876366312E+00  8.930774882707E+00  9.037944181300E+00
  9.146399511475E+00  9.256156305613E+00  9.367230181280E+00  9.479636943456E+00
  9.593392586777E+00  9.708513297819E+00  9.825015457392E+00  9.942915642881E+00
  1.006223063060E+01  1.018297739816E+01  1.030517312694E+01  1.042883520446E+01
  1.055398122692E+01  1.068062900164E+01  1.080879654966E+01  1.093850210826E+01
  1.106976413356E+01  1.120260130316E+01  1.133703251880E+01  1.147307690902E+01
  1.161075383193E+01  1.175008287791E+01  1.189108387245E+01  1.203377687892E+01
  1.217818220146E+01  1.232432038788E+01  1.247221223254E+01  1.262187877933E+01
  1.277334132468E+01  1.292662142057E+01  1.308174087762E+01  1.323872176815E+01
  1.339758642937E+01  1.355835746652E+01  1.372105775612E+01  1.388571044920E+01
  1.405233897459E+01  1.422096704228E+01  1.439161864679E+01  1.456431807055E+01
  1.473908988740E+01  1.491595896604E+01  1.509495047364E+01  1.527608987932E+01
  1.545940295787E+01  1.564491579337E+01  1.583265478289E+01  1.602264664028E+01
  1.621491839997E+01  1.640949742077E+01  1.660641138981E+01  1.680568832649E+01
  1.700735658641E+01  1.721144486545E+01  1.741798220383E+01  1.762699799028E+01
  1.783852196616E+01  1.805258422976E+01  1.826921524051E+01  1.848844582340E+01
  1.871030717328E+01  1.893483085936E+01  1.916204882967E+01  1.939199341563E+01
  1.962469733662E+01  1.986019370465E+01  2.009851602911E+01  2.033969822146E+01
  2.058377460012E+01  2.083077989532E+01  2.108074925406E+01  2.133371824511E+01
  2.158972286405E+01  2.184879953842E+01  2.211098513288E+01  2.237631695448E+01
  2.264483275793E+01  2.291657075103E+01  2.319156960004E+01  2.346986843524E+01
  2.375150685646E+01  2.403652493874E+01  2.432496323800E+01  2.461686279686E+01
  2.491226515042E+01  2.521121233223E+01  2.551374688021E+01  2.581991184278E+01
  2.612975078489E+01  2.644330779431E+01  2.676062748784E+01  2.708175501769E+01
  2.740673607791E+01  2.773561691084E+01  2.806844431377E+01  2.840526564554E+01
  2.874612883328E+01  2.909108237928E+01  2.944017536783E+01  2.979345747225E+01
  3.015097896191E+01  3.051279070946E+01  3.087894419797E+01  3.124949152835E+01
  3.162448542669E+01  3.200397925181E+01  3.238802700283E+01  3.277668332686E+01
  3.317000352679E+01  3.356804356911E+01  3.397086009194E+01  3.437851041304E+01
  3.479105253800E+01  3.520854516845E+01  3.563104771047E+01  3.605862028300E+01
  3.649132372639E+01  3.692921961111E+01  3.737237024644E+01  3.782083868940E+01
  3.827468875368E+01  3.873398501872E+01  3.919879283894E+01  3.966917835301E+01
  4.014520849325E+01  4.062695099517E+01  4.111447440711E+01  4.160784809999E+01
  4.210714227719E+01  4.261242798452E+01  4.312377712033E+01  4.364126244578E+01
  4.416495759513E+01
</grid-data>
</grid>
<valence-charge total-charge="12" is-unscreening-charge="yes"
 rescaled-to-z-pseudo="no">
<radfunc>
<data npts="457">
  7.607920716756E-02  7.636305118404E-02  7.721190251969E-02  7.862923382222E-02
  8.060221229138E-02  8.320072439893E-02  8.651950298626E-02  9.032944047565E-02
  9.462561370474E-02  9.965208843473E-02  1.053390334785E-01  1.115458962983E-01
  1.190827614932E-01  1.269957444399E-01  1.363847773570E-01  1.458203036114E-01
  1.567581636132E-01  1.671978315652E-01  1.790173847968E-01  1.924064103752E-01
  2.075822122429E-01  2.211757306712E-01  2.362162867815E-01  2.528656359265E-01
  2.713048854821E-01  2.917369704693E-01  3.143894503054E-01  3.329884034904E-01
  3.530984189254E-01  3.748494304676E-01  3.983832100528E-01  4.238544601827E-01
  4.514319928297E-01  4.812999960675E-01  5.136593878555E-01  5.487292538537E-01
  5.867483627755E-01  6.279767484097E-01  6.573839970988E-01  6.884326591250E-01
  7.212176302064E-01  7.558390915114E-01  7.924027199838E-01  8.310198895432E-01
  8.718078590778E-01  9.148899424301E-01  9.603956547692E-01  1.008460828840E+00
  1.059227693571E+00  1.112844906417E+00  1.169467529560E+00  1.229256938786E+00
  1.292380652357E+00  1.359012065653E+00  1.429330075672E+00  1.503518577703E+00
  1.581765814646E+00  1.664263557578E+00  1.751206094229E+00  1.842789000193E+00
  1.939207665942E+00  2.040655551082E+00  2.147322136014E+00  2.259390540204E+00
  2.377034775865E+00  2.500416606120E+00  2.629681977898E+00  2.696561295938E+00
  2.764957002000E+00  2.834881022848E+00  2.906343456404E+00  2.979352403896E+00
  3.053913794010E+00  3.130031199041E+00  3.207705643090E+00  3.286935402401E+00
  3.367715797975E+00  3.450038980697E+00  3.533893709233E+00  3.619265121080E+00
  3.706134497177E+00  3.794479020632E+00  3.884271530170E+00  3.975480269034E+00
  4.068068630171E+00  4.161994898657E+00  4.257211992427E+00  4.353667202527E+00
  4.451301934212E+00  4.550051450388E+00  4.649844619002E+00  4.750603666189E+00
  4.852243937082E+00  4.954673666384E+00  5.057793760952E+00  5.161497596791E+00
  5.265670833018E+00  5.370191245495E+00  5.474928583009E+00  5.579744448951E+00
  5.684492211644E+00  5.789016946512E+00  5.893155413439E+00  5.996736072688E+00
  6.099579142834E+00  6.201496704186E+00  6.302292851152E+00  6.401763896985E+00
  6.499698634241E+00  6.595878654210E+00  6.690078728361E+00  6.782067254686E+00
  6.871606771530E+00  6.958454541212E+00  7.042363205333E+00  7.123081513290E+00
  7.200355124973E+00  7.273927488132E+00  7.343540790237E+00  7.408936984032E+00
  7.469858885252E+00  7.526051340168E+00  7.577262459831E+00  7.623244917002E+00
  7.663757300821E+00  7.698565523363E+00  7.727444271216E+00  7.750178494264E+00
  7.766564922855E+00  7.776413603561E+00  7.779549442766E+00  7.775813746401E+00
  7.765065743265E+00  7.747184078547E+00  7.722068263418E+00  7.689640065935E+00
  7.649844827922E+00  7.602652692104E+00  7.548059723468E+00  7.486088908696E+00
  7.416791017560E+00  7.340245310369E+00  7.256560075983E+00  7.165872985506E+00
  7.068351247626E+00  6.964191552606E+00  6.853619793258E+00  6.736890552769E+00
  6.614286351058E+00  6.486116643429E+00  6.352716567611E+00  6.214445437892E+00
  6.071684987946E+00  5.924837367052E+00  5.774322897821E+00  5.620577607129E+00
  5.464050545721E+00  5.305200915921E+00  5.144495030852E+00  4.982403132611E+00
  4.819396100784E+00  4.655942086441E+00  4.492503110196E+00  4.329531665965E+00
  4.167467374495E+00  4.006733732514E+00  3.847735004253E+00  3.690853302129E+00
  3.536445902266E+00  3.384842838453E+00  3.236344814889E+00  3.091221473735E+00
  2.949710048306E+00  2.812014426717E+00  2.678304563294E+00  2.548715991047E+00
  2.423349616257E+00  2.302273421366E+00  2.185528314214E+00  2.073135835924E+00
  1.965100200949E+00  1.861408569473E+00  1.762032669198E+00  1.666929934750E+00
  1.576044723234E+00  1.489309511632E+00  1.406646076655E+00  1.327966651160E+00
  1.253175050554E+00  1.182167764445E+00  1.114835008870E+00  1.051061735136E+00
  9.907285919020E-01  9.337128376845E-01  8.798892015593E-01  8.291306903349E-01
  7.813093410038E-01  7.362969177556E-01  6.939655532975E-01  6.541883346545E-01
  6.168398340239E-01  5.817965856254E-01  5.489375098260E-01  5.181442861242E-01
  4.893016768531E-01  4.622978037032E-01  4.370243793798E-01  4.133768968894E-01
  3.912547790990E-01  3.705614913311E-01  3.512046198387E-01  3.330959190536E-01
  3.161513305100E-01  3.002909763140E-01  2.854391299592E-01  2.715241671881E-01
  2.584784993856E-01  2.462384918734E-01  2.347443693694E-01  2.239401103693E-01
  2.137733322669E-01  2.041951687108E-01  1.951601405369E-01  1.866260214666E-01
  1.785536996487E-01  1.709070360366E-01  1.636527205373E-01  1.567601268255E-01
  1.502011666891E-01  1.439501447407E-01  1.379836142963E-01  1.322802351815E-01
  1.268206341689E-01  1.215872686882E-01  1.165642943783E-01  1.117374369724E-01
  1.070938689255E-01  1.026220911149E-01  9.831181986622E-02  9.415387948493E-02
  9.014010040681E-02  8.626322302143E-02  8.251680716983E-02  7.889514727249E-02
  7.539319300439E-02  7.200647540160E-02  6.873103825682E-02  6.556337463916E-02
  6.250036835622E-02  5.953924016322E-02  5.667749851414E-02  5.391289464341E-02
  5.124338176347E-02  4.866707816252E-02  4.618223398855E-02  4.378720150972E-02
  4.148040864675E-02  3.926033558037E-02  3.712549424552E-02  3.507441053306E-02
  3.310560902995E-02  3.121760013774E-02  2.940886941891E-02  2.767786902790E-02
  2.602301109041E-02  2.444266289937E-02  2.293514379864E-02  2.149872362700E-02
  2.013162259403E-02  1.883201246004E-02  1.759801888128E-02  1.642772479185E-02
  1.531917468418E-02  1.427037964555E-02  1.327932301221E-02  1.234396650260E-02
  1.146225669442E-02  1.063213171541E-02  9.851528024912E-03  9.118387172046E-03
  8.430662426837E-03  7.786325192038E-03  7.183371115847E-03  6.619825838461E-03
  6.093750318260E-03  5.603245696031E-03  5.146457667660E-03  4.721580347031E-03
  4.326859611144E-03  3.960595928763E-03  3.621146681925E-03  3.306927996608E-03
  3.016416104551E-03  2.748148262816E-03  2.500723261203E-03  2.272801550160E-03
  2.063105023393E-03  1.870416490221E-03  1.693578872749E-03  1.531494162412E-03
  1.383122169346E-03  1.247479096539E-03  1.123635968857E-03  1.010716944935E-03
  9.078975375757E-04  8.144027659397E-04  7.295052602943E-04  6.525233376696E-04
  5.828190643743E-04  5.197963190596E-04  4.628988678972E-04  4.116084615023E-04
  3.654429614866E-04  3.239545030025E-04  2.867276983136E-04  2.533778853220E-04
  2.235494240589E-04  1.969140434098E-04  1.731692397579E-04  1.520367287801E-04
  1.332609512856E-04  1.166076337295E-04  1.018624038411E-04  8.882946165138E-05
  7.733030608205E-05  6.720251714629E-05  5.829859370138E-05  5.048484658155E-05
  4.364034681714E-05  3.765592851435E-05  3.243324582788E-05  2.788388330794E-05
  2.392851874664E-05  2.049613748998E-05  1.752329702430E-05  1.495344049352E-05
  1.273625766001E-05  1.082709169002E-05  9.186390027137E-06  7.779197516233E-06
  6.574689857486E-06  5.545745405560E-06  4.668553283984E-06  3.922255758337E-06
  3.288622803719E-06  2.751756811038E-06  2.297825401568E-06  1.914820358583E-06
  1.592340736890E-06  1.321398274119E-06  1.094243299806E-06  9.042094179941E-07
  7.455753244732E-07  6.134422093134E-07  5.036252875967E-07  4.125580947479E-07
  3.372082764889E-07  2.750036960852E-07  2.237677723042E-07  1.816630496114E-07
  1.471420869420E-07  1.189048324215E-07  9.586172828540E-08  7.710186270173E-08
  6.186555306748E-08  4.952080855153E-08  3.954317818694E-08  3.149854473878E-08
  2.502847400027E-08  1.983777425749E-08  1.568396160105E-08  1.236836376520E-08
  9.728628475027E-09  7.632432122114E-09  5.972211218442E-09  4.660762745392E-09
  3.627580466571E-09  2.815812748266E-09  2.179743660449E-09  1.682713333376E-09
  1.295405926914E-09  9.944443250962E-10  7.612399767994E-10  5.810543302739E-10
  4.422352061436E-10  3.355973583350E-10  2.539215099044E-10  1.915504330941E-10
  1.440642705183E-10  1.080203564355E-10  8.074537267908E-11  6.016983262916E-11
  4.469668971158E-11  3.309736758251E-11  2.442975373201E-11  1.797372675262E-11
  1.318063446409E-11  9.633835027209E-12  7.017981356094E-12  5.095192002352E-12
  3.686627391128E-12  2.658294144507E-12  1.910145070401E-12  1.367738955129E-12
  9.758815377301E-13  6.937944113057E-13  4.914575280093E-13  3.130968774388E-13
  1.652145961642E-13  1.146526328183E-13  7.923889360548E-14  5.453688046325E-14
  3.737818420174E-14  2.550940653214E-14  1.733463554545E-14  1.172840523902E-14
  7.900425910358E-15  5.298177021333E-15  3.537070255302E-15  2.350599966308E-15
  1.554919289935E-15  1.023780939414E-15  6.708910091665E-16  4.375402698993E-16
  2.839751226001E-16  1.834060010429E-16  1.178670002627E-16  7.536861058869E-17
  4.794929141287E-17  3.034874974104E-17  1.910906252035E-17  1.196880764922E-17
  7.456724527879E-18  4.620652429207E-18  2.847661539093E-18  1.745319093960E-18
  1.063736119356E-18  6.446684468888E-19  3.884658621718E-19  2.327305420561E-19
  1.386142109955E-19  8.207018306814E-20  4.830091522136E-20  2.825441372873E-20
  1.642655576564E-20  9.490823558400E-21  5.449114974848E-21  3.108707310602E-21
  1.762106604677E-21  9.923143175377E-22  5.551327555674E-22  3.084893275392E-22
  1.702724685304E-22  0.000000000000E+00  0.000000000000E+00  0.000000000000E+00
  0.000000000000E+00
</data>
</radfunc>
</valence-charge>
<pseudocore-charge matching-radius="0.831700866650"
 number-of-continuous-derivatives="4">
<annotation model-charge-form="Teter function with specified parameters" />
<radfunc>
<data npts="290">
  3.981239638889E+01  3.980985872732E+01  3.980227280232E+01  3.978961686792E+01
  3.977202076428E+01  3.974888371068E+01  3.971939574202E+01  3.968562932358E+01
  3.964766240313E+01  3.960338669047E+01  3.955348000991E+01  3.949923441867E+01
  3.943367488893E+01  3.936520399053E+01  3.928443173439E+01  3.920376533662E+01
  3.911087756015E+01  3.902283166241E+01  3.892385343385E+01  3.881261711726E+01
  3.868764469469E+01  3.857667704719E+01  3.845494247252E+01  3.832143411590E+01
  3.817505890671E+01  3.801463187215E+01  3.783887046067E+01  3.769615666916E+01
  3.754341568419E+01  3.737998763104E+01  3.720517607350E+01  3.701824708223E+01
  3.681842847878E+01  3.660490929931E+01  3.637683952845E+01  3.613333016128E+01
  3.587345365890E+01  3.559624487194E+01  3.540131693314E+01  3.519793625832E+01
  3.498579128844E+01  3.476456452074E+01  3.453393301845E+01  3.429356900712E+01
  3.404314056527E+01  3.378231241772E+01  3.351074684009E+01  3.322810468356E+01
  3.293404652915E+01  3.262823398098E+01  3.231033110846E+01  3.198000604708E+01
  3.163693276779E+01  3.128079302466E+01  3.091127849039E+01  3.052809308866E+01
  3.013095553178E+01  2.971960207114E+01  2.929378946688E+01  2.885329818167E+01
  2.839793580171E+01  2.792754068580E+01  2.744198584083E+01  2.694118301861E+01
  2.642508702554E+01  2.589370023237E+01  2.534707726614E+01  2.506808476890E+01
  2.478532986120E+01  2.449883625008E+01  2.420863183981E+01  2.391474889195E+01
  2.361722418584E+01  2.331609917908E+01  2.301142016749E+01  2.270323844412E+01
  2.239161045667E+01  2.207659796292E+01  2.175826818333E+01  2.143669395032E+01
  2.111195385354E+01  2.078413238021E+01  2.045332004993E+01  2.011961354312E+01
  1.978311582203E+01  1.944393624366E+01  1.910219066348E+01  1.875800152897E+01
  1.841149796197E+01  1.806281582875E+01  1.771209779670E+01  1.735949337647E+01
  1.700515894834E+01  1.664925777179E+01  1.629195997674E+01  1.593344253554E+01
  1.557388921416E+01  1.521349050153E+01  1.485244351559E+01  1.449095188491E+01
  1.412922560455E+01  1.376748086499E+01  1.340593985288E+01  1.304483052252E+01
  1.268438633693E+01  1.232484597754E+01  1.196645302154E+01  1.160945558599E+01
  1.125410593810E+01  1.090066007087E+01  1.054937724388E+01  1.020051948869E+01
  9.854351078870E+00  9.511137964707E+00  9.171147172833E+00  8.834646171341E+00
  8.501902201123E+00  8.173181574476E+00  7.848748942304E+00  7.528866531525E+00
  7.213793354637E+00  6.903784393704E+00  6.599089761399E+00  6.299953842066E+00
  6.006614416153E+00  5.719301771721E+00  5.438237807143E+00  5.163635129424E+00
  4.895696153009E+00  4.634612204261E+00  4.380562637164E+00  4.133713966118E+00
  3.894219022028E+00  3.662216138130E+00  3.437828372268E+00  3.221162772512E+00
  3.012309693177E+00  2.811342168368E+00  2.618315350228E+00  2.433266019019E+00
  2.256212172040E+00  2.087152698188E+00  1.926067144691E+00  1.772915582132E+00
  1.627638573426E+00  1.490157251797E+00  1.360373512143E+00  1.238170319342E+00
  1.123412136183E+00  1.015945472572E+00  9.155995565731E-01  8.221871266369E-01
  7.355053430885E-01  6.553368155888E-01  5.814507418674E-01  5.136041515649E-01
  4.515432475382E-01  3.950048354925E-01  3.437178313396E-01  2.974048342536E-01
  2.557837520534E-01  2.185694642903E-01  1.854755073091E-01  1.562157646025E-01
  1.305061450225E-01  1.080662308862E-01  8.862087773365E-02  7.190174749666E-02
  5.764875713933E-02  4.561142544703E-02  3.555010158800E-02  2.723706035232E-02
  2.045745058618E-02  1.501008527431E-02  1.070806396197E-02  7.379220720658E-03
  4.866393611812E-03  3.027514542174E-03  1.735521477763E-03  8.780981245524E-04
  3.572493220352E-04  8.872345231796E-05  1.296060796763E-06  3.593153125442E-05
  1.448419760430E-04  2.904644122340E-04  4.443787256344E-04  5.861898149011E-04
  7.023976095108E-04  7.852783362635E-04  8.317994565609E-04  8.425891193600E-04
  8.209788036487E-04  7.721351141446E-04  7.022935224445E-04  6.181033125559E-04
  5.260892133699E-04  4.322313153904E-04  3.416610197246E-04  2.584671034997E-04
  1.856026549753E-04  1.248807718769E-04  7.704464931460E-05  4.189610646930E-05
  1.846578086402E-05  5.208186335155E-06  2.055769048626E-07  1.366033371371E-06
  6.603301681841E-06  1.398853389496E-05  2.186705448725E-05  2.893641509875E-05
  3.428511605092E-05  3.739427035008E-05  3.810698667876E-05  3.657220049439E-05
  3.317097432580E-05  2.843385597464E-05  2.295771798891E-05  1.732965215266E-05
  1.206406219664E-05  7.557237028456E-06  4.061581059386E-06  1.679532155154E-06
  3.752160716162E-07  2.542250311778E-10  3.290064629591E-07  1.097985642446E-06
  2.044255564236E-06  2.938279275048E-06  3.607817518385E-06  3.950930542260E-06
  3.937718849110E-06  3.601946249023E-06  3.024932001798E-06  2.314926765725E-06
  1.585507517905E-06  9.363198201869E-07  4.388175346588E-07  1.286239292253E-07
  4.937300247476E-09  0.000000000000E+00  0.000000000000E+00  0.000000000000E+00
  0.000000000000E+00  0.000000000000E+00  0.000000000000E+00  0.000000000000E+00
  0.000000000000E+00  0.000000000000E+00  0.000000000000E+00  0.000000000000E+00
  0.000000000000E+00  0.000000000000E+00  0.000000000000E+00  0.000000000000E+00
  0.000000000000E+00  0.000000000000E+00  0.000000000000E+00  0.000000000000E+00
  0.000000000000E+00  0.000000000000E+00  0.000000000000E+00  0.000000000000E+00
  0.000000000000E+00  0.000000000000E+00  0.000000000000E+00  0.000000000000E+00
  0.000000000000E+00  0.000000000000E+00  0.000000000000E+00  0.000000000000E+00
  0.000000000000E+00  0.000000000000E+00  0.000000000000E+00  0.000000000000E+00
  0.000000000000E+00  0.000000000000E+00  0.000000000000E+00  0.000000000000E+00
  0.000000000000E+00  0.000000000000E+00  0.000000000000E+00  0.000000000000E+00
  0.000000000000E+00  0.000000000000E+00  0.000000000000E+00  0.000000000000E+00
  0.000000000000E+00  0.000000000000E+00
</data>
</radfunc>
</pseudocore-charge>
<semilocal-potentials set="scalar_relativistic">
<slps n="4" l="s" rc="1.56507198192">
<radfunc>
<data npts="290">
  4.334244767308E+01  4.331331587162E+01  4.322638578818E+01  4.308187122187E+01
  4.288200874713E+01  4.262107391029E+01  4.229154602646E+01  4.191831654042E+01
  4.150380776803E+01  4.102717190365E+01  4.049843673850E+01  3.993371933673E+01
  3.926471343667E+01  3.858128028832E+01  3.779444172819E+01  3.702880390381E+01
  3.617114103180E+01  3.538091639396E+01  3.451786104652E+01  3.357843747602E+01
  3.255963686666E+01  3.168586188740E+01  3.075899504709E+01  2.977865761933E+01
  2.874494149054E+01  2.765846223213E+01  2.652040614290E+01  2.563407310931E+01
  2.472071652019E+01  2.378153327899E+01  2.281792659100E+01  2.183150393463E+01
  2.082407186680E+01  1.979762755385E+01  1.875434700555E+01  1.769657008431E+01
  1.662678246101E+01  1.554759478805E+01  1.482425010468E+01  1.409875520200E+01
  1.337194538394E+01  1.264466402158E+01  1.191775891041E+01  1.119207860613E+01
  1.046846877603E+01  9.747768602914E+00  9.030807277745E+00  8.318400616014E+00
  7.611347830981E+00  6.910428494555E+00  6.216399713817E+00  5.529993547990E+00
  4.851914687155E+00  4.182838410237E+00  3.523408835903E+00  2.874237475973E+00
  2.235902096982E+00  1.608945891501E+00  9.938769570930E-01  3.911680770528E-01
 -1.987432063107E-01 -7.754542382397E-01 -1.338596633232E+00 -1.887835409720E+00
 -2.422867897846E+00 -2.943422442384E+00 -3.449256924539E+00 -3.696586157080E+00
 -3.940157127742E+00 -4.179947129687E+00 -4.415934973640E+00 -4.648100927568E+00
 -4.876426655423E+00 -5.100895155156E+00 -5.321490696207E+00 -5.538198756724E+00
 -5.751005960717E+00 -5.959900015366E+00 -6.164869648721E+00 -6.365904547998E+00
 -6.562995298706E+00 -6.756133324808E+00 -6.945310830142E+00 -7.130520741310E+00
 -7.311756652236E+00 -7.489012770608E+00 -7.662283866380E+00 -7.831565222559E+00
 -7.996852588410E+00 -8.158142135303E+00 -8.315430415301E+00 -8.468714322786E+00
 -8.617991058957E+00 -8.763258099753E+00 -8.904513166921E+00 -9.041754202529E+00
 -9.174979346944E+00 -9.304186920333E+00 -9.429375407693E+00 -9.550543447442E+00
 -9.667689823539E+00 -9.780813461093E+00 -9.889913425376E+00 -9.994988924158E+00
 -1.009603931321E+01 -1.019306410485E+01 -1.028606297929E+01 -1.037503579863E+01
 -1.045998262320E+01 -1.054090373002E+01 -1.061779963304E+01 -1.069067110484E+01
 -1.075951919949E+01 -1.082434527616E+01 -1.088515102306E+01 -1.094193848141E+01
 -1.099471006895E+01 -1.104346860260E+01 -1.108821731987E+01 -1.112895989858E+01
 -1.116570047449E+01 -1.119844365658E+01 -1.122719453943E+01 -1.125195871267E+01
 -1.127274226696E+01 -1.128955179675E+01 -1.130239439938E+01 -1.131127767093E+01
 -1.131620969887E+01 -1.131719905218E+01 -1.131425476942E+01 -1.130738634599E+01
 -1.129660372178E+01 -1.128191727109E+01 -1.126333779694E+01 -1.124087653281E+01
 -1.121454515493E+01 -1.118435580953E+01 -1.115032115974E+01 -1.111245445806E+01
 -1.107076965095E+01 -1.102528152330E+01 -1.097600589133E+01 -1.092295985381E+01
 -1.086616211217E+01 -1.080563337142E+01 -1.074139683450E+01 -1.067347880356E+01
 -1.060190940229E+01 -1.052672343368E+01 -1.044796138766E+01 -1.036567061251E+01
 -1.027990666286E+01 -1.019073483537E+01 -1.009823190040E+01 -1.000248803439E+01