<?xml version="1.0" encoding="UTF-8" ?>
<psml version="1.1" energy_unit="hartree" length_unit="bohr"
 uuid="a579a9f0-4224-11e8-4a18-1092fbf428a5"
 xmlns="http://esl.cecam.org/PSML/ns/1.1">
<provenance creator="ONCVPSP-3.3.0+psml-3.3.0-73 (fully-relativistic)"
 date="2018-04-17">
<annotation action="semilocal-pseudopotential-generation"
 action-cont="projectors-generation" />
<input-file name="oncvpsp-input">
<![CDATA[# atsym z nc nv iexc psfile
S 16 3 2 4 both
# n l f
1 0 2.0
2 0 2.0
2 1 6.0
3 0 2.0
3 1 4.0
# lmax
2
# l rc ep ncon nbas qcut
0 1.45 0.0 4 9 6.3
1 1.45 0.0 4 9 7.6
2 1.60 0.15 4 9 7.0
# lloc lpopt rc5 dvloc0
4 5 1.4 0.0
# l nproj debl
0 2 2.0
1 2 2.0
2 2 1.0
# icmod fcfact
3 6 1.25
# epsh1 epsh2 depsh
-12.0 12.0 0.02
# rlmax drl
6.0 0.01
 0
]]>
</input-file>
</provenance>
<pseudo-atom-spec atomic-label="S" atomic-number="16" z-pseudo="6"
 flavor="Hamann&apos;s oncvpsp" relativity="dirac" spin-dft="no"
 core-corrections="yes">
<annotation pseudo-energy="-10.1074023103" />
<exchange-correlation>
<annotation oncvpsp-xc-code="4" oncvpsp-xc-type="GGA -- Perdew-Burke-Ernzerhof" />
<libxc-info number-of-functionals="2">
<functional name="Perdew, Burke &amp; Ernzerhof (GGA)" type="exchange" id="101" />
<functional name="Perdew, Burke &amp; Ernzerhof (GGA)" type="correlation"
 id="130" />
</libxc-info>
</exchange-correlation>
<valence-configuration total-valence-charge="6">
<shell n="3" l="s" occupation="2" />
<shell n="3" l="p" occupation="4" />
</valence-configuration>
</pseudo-atom-spec>
<grid npts="457">
<annotation type="sampled from oncvpsp log grid"
 recipe="r(i:1..N) = r1*exp(a*(i-1)) + r=0; resampled"
 recipe-cont="r1: scale; a: step" scale="0.312500000000E-04"
 step="0.119285708653E-01" delta="0.500000000000E-02" rmax="44.0674949757" />
<grid-data>
  0.000000000000E+00  5.032089401363E-03  1.005120367503E-02  1.507840828192E-02
  2.031740843734E-02  2.548578698111E-02  3.084510470868E-02  3.601910451176E-02
  4.106941804742E-02  4.627257563705E-02  5.151672975532E-02  5.667511193686E-02
  6.235000413091E-02  6.777976739691E-02  7.280867859944E-02  7.821070922764E-02
  8.401354282973E-02  8.917679538664E-02  9.465736793826E-02  1.004747621413E-01
  1.066496781734E-01  1.118617474217E-01  1.173285353557E-01  1.230624903151E-01
  1.290766690016E-01  1.353847662102E-01  1.420011460131E-01  1.471747771426E-01
  1.525369029415E-01  1.580943909733E-01  1.638543590123E-01  1.698241841602E-01
  1.760115122937E-01  1.824242678575E-01  1.890706640132E-01  1.959592131586E-01
  2.030987378299E-01  2.104983820012E-01  2.155806549362E-01  2.207856342690E-01
  2.261162826228E-01  2.315756341504E-01  2.371667962613E-01  2.428929513903E-01
  2.487573588086E-01  2.547633564797E-01  2.609143629586E-01  2.672138793378E-01
  2.736654912406E-01  2.802728708611E-01  2.870397790552E-01  2.939700674807E-01
  3.010676807899E-01  3.083366588749E-01  3.157811391668E-01  3.234053589908E-01
  3.312136579783E-01  3.392104805365E-01  3.474003783786E-01  3.557880131142E-01
  3.643781589028E-01  3.731757051713E-01  3.821856593970E-01  3.914131499575E-01
  4.008634290501E-01  4.105418756810E-01  4.204539987275E-01  4.254994467122E-01
  4.306054400728E-01  4.357727053536E-01  4.410019778179E-01  4.462940015517E-01
  4.516495295703E-01  4.570693239252E-01  4.625541558123E-01  4.681048056820E-01
  4.737220633502E-01  4.794067281104E-01  4.851596088477E-01  4.909815241539E-01
  4.968733024437E-01  5.028357820731E-01  5.088698114579E-01  5.149762491954E-01
  5.211559641858E-01  5.274098357560E-01  5.337387537851E-01  5.401436188305E-01
  5.466253422565E-01  5.531848463636E-01  5.598230645199E-01  5.665409412942E-01
  5.733394325897E-01  5.802195057808E-01  5.871821398501E-01  5.942283255283E-01
  6.013590654347E-01  6.085753742199E-01  6.158782787105E-01  6.232688180550E-01
  6.307480438717E-01  6.383170203982E-01  6.459768246429E-01  6.537285465387E-01
  6.615732890971E-01  6.695121685663E-01  6.775463145891E-01  6.856768703642E-01
  6.939049928085E-01  7.022318527222E-01  7.106586349549E-01  7.191865385744E-01
  7.278167770372E-01  7.365505783617E-01  7.453891853020E-01  7.543338555257E-01
  7.633858617920E-01  7.725464921335E-01  7.818170500391E-01  7.911988546395E-01
  8.006932408952E-01  8.103015597860E-01  8.200251785034E-01  8.298654806454E-01
  8.398238664132E-01  8.499017528101E-01  8.601005738439E-01  8.704217807300E-01
  8.808668420987E-01  8.914372442039E-01  9.021344911344E-01  9.129601050280E-01
  9.239156262883E-01  9.350026138038E-01  9.462226451694E-01  9.575773169115E-01
  9.690682447144E-01  9.806970636510E-01  9.924654284148E-01  1.004375013556E+00
  1.016427513718E+00  1.028624643883E+00  1.040968139610E+00  1.053459757285E+00
  1.066101274372E+00  1.078894489665E+00  1.091841223541E+00  1.104943318223E+00
  1.118202638042E+00  1.131621069699E+00  1.145200522535E+00  1.158942928805E+00
  1.172850243951E+00  1.186924446878E+00  1.201167540241E+00  1.215581550724E+00
  1.230168529332E+00  1.244930551684E+00  1.259869718305E+00  1.274988154924E+00
  1.290288012783E+00  1.305771468937E+00  1.321440726564E+00  1.337298015283E+00
  1.353345591466E+00  1.369585738564E+00  1.386020767427E+00  1.402653016636E+00
  1.419484852835E+00  1.436518671069E+00  1.453756895122E+00  1.471201977864E+00
  1.488856401598E+00  1.506722678417E+00  1.524803350558E+00  1.543100990765E+00
  1.561618202654E+00  1.580357621086E+00  1.599321912539E+00  1.618513775489E+00
  1.637935940795E+00  1.657591172085E+00  1.677482266150E+00  1.697612053344E+00
  1.717983397984E+00  1.738599198760E+00  1.759462389145E+00  1.780575937814E+00
  1.801942849068E+00  1.823566163257E+00  1.845448957216E+00  1.867594344703E+00
  1.890005476839E+00  1.912685542561E+00  1.935637769072E+00  1.958865422301E+00
  1.982371807368E+00  2.006160269057E+00  2.030234192286E+00  2.054597002593E+00
  2.079252166624E+00  2.104203192624E+00  2.129453630935E+00  2.155007074506E+00
  2.180867159400E+00  2.207037565313E+00  2.233522016097E+00  2.260324280290E+00
  2.287448171654E+00  2.314897549713E+00  2.342676320310E+00  2.370788436154E+00
  2.399237897388E+00  2.428028752156E+00  2.457165097182E+00  2.486651078348E+00
  2.516490891288E+00  2.546688781984E+00  2.577249047368E+00  2.608176035936E+00
  2.639474148367E+00  2.671147838148E+00  2.703201612206E+00  2.735640031552E+00
  2.768467711931E+00  2.801689324474E+00  2.835309596367E+00  2.869333311524E+00
  2.903765311262E+00  2.938610494997E+00  2.973873820937E+00  3.009560306789E+00
  3.045675030470E+00  3.082223130836E+00  3.119209808406E+00  3.156640326107E+00
  3.194520010020E+00  3.232854250140E+00  3.271648501142E+00  3.310908283155E+00
  3.350639182553E+00  3.390846852744E+00  3.431537014977E+00  3.472715459157E+00
  3.514388044666E+00  3.556560701202E+00  3.599239429617E+00  3.642430302772E+00
  3.686139466406E+00  3.730373140002E+00  3.775137617682E+00  3.820439269095E+00
  3.866284540324E+00  3.912679954808E+00  3.959632114265E+00  4.007147699637E+00
  4.055233472032E+00  4.103896273697E+00  4.153143028981E+00  4.202980745329E+00
  4.253416514273E+00  4.304457512444E+00  4.356111002593E+00  4.408384334624E+00
  4.461284946640E+00  4.514820366000E+00  4.568998210392E+00  4.623826188916E+00
  4.679312103183E+00  4.735463848421E+00  4.792289414603E+00  4.849796887578E+00
  4.907994450229E+00  4.966890383631E+00  5.026493068235E+00  5.086810985054E+00
  5.147852716874E+00  5.209626949477E+00  5.272142472871E+00  5.335408182545E+00
  5.399433080736E+00  5.464226277704E+00  5.529796993037E+00  5.596154556953E+00
  5.663308411637E+00  5.731268112576E+00  5.800043329927E+00  5.869643849887E+00
  5.940079576085E+00  6.011360530998E+00  6.083496857370E+00  6.156498819659E+00
  6.230376805494E+00  6.305141327160E+00  6.380803023086E+00  6.457372659363E+00
  6.534861131276E+00  6.613279464851E+00  6.692638818429E+00  6.772950484250E+00
  6.854225890061E+00  6.936476600742E+00  7.019714319951E+00  7.103950891790E+00
  7.189198302492E+00  7.275468682122E+00  7.362774306307E+00  7.451127597983E+00
  7.540541129159E+00  7.631027622709E+00  7.722599954181E+00  7.815271153631E+00
  7.909054407475E+00  8.003963060365E+00  8.100010617089E+00  8.197210744494E+00
  8.295577273428E+00  8.395124200709E+00  8.495865691118E+00  8.597816079411E+00
  8.700989872364E+00  8.805401750832E+00  8.911066571842E+00  9.017999370705E+00
  9.126215363153E+00  9.235729947511E+00  9.346558706881E+00  9.458717411364E+00
  9.572222020300E+00  9.687088684543E+00  9.803333748758E+00  9.920973753743E+00
  1.004002543879E+01  1.016050574405E+01  1.028243181298E+01  1.040582099474E+01
  1.053069084667E+01  1.065705913683E+01  1.078494384648E+01  1.091436317263E+01
  1.104533553071E+01  1.117787955707E+01  1.131201411176E+01  1.144775828110E+01
  1.158513138047E+01  1.172415295704E+01  1.186484279252E+01  1.200722090603E+01
  1.215130755691E+01  1.229712324759E+01  1.244468872656E+01  1.259402499128E+01
  1.274515329117E+01  1.289809513067E+01  1.305287227224E+01  1.320950673950E+01
  1.336802082038E+01  1.352843707022E+01  1.369077831507E+01  1.385506765485E+01
  1.402132846670E+01  1.418958440830E+01  1.435985942120E+01  1.453217773426E+01
  1.470656386707E+01  1.488304263347E+01  1.506163914508E+01  1.524237881482E+01
  1.542528736059E+01  1.561039080892E+01  1.579771549863E+01  1.598728808461E+01
  1.617913554163E+01  1.637328516813E+01  1.656976459015E+01  1.676860176523E+01
  1.696982498641E+01  1.717346288625E+01  1.737954444088E+01  1.758809897417E+01
  1.779915616186E+01  1.801274603580E+01  1.822889898823E+01  1.844764577609E+01
  1.866901752541E+01  1.889304573571E+01  1.911976228454E+01  1.934919943195E+01
  1.958138982514E+01  1.981636650304E+01  2.005416290108E+01  2.029481285589E+01
  2.053835061016E+01  2.078481081748E+01  2.103422854729E+01  2.128663928986E+01
  2.154207896134E+01  2.180058390887E+01  2.206219091578E+01  2.232693720677E+01
  2.259486045325E+01  2.286599877869E+01  2.314039076403E+01  2.341807545320E+01
  2.369909235864E+01  2.398348146694E+01  2.427128324455E+01  2.456253864348E+01
  2.485728910720E+01  2.515557657649E+01  2.545744349541E+01  2.576293281735E+01
  2.607208801116E+01  2.638495306729E+01  2.670157250410E+01  2.702199137415E+01
  2.734625527064E+01  2.767441033389E+01  2.800650325790E+01  2.834258129699E+01
  2.868269227255E+01  2.902688457982E+01  2.937520719478E+01  2.972770968112E+01
  3.008444219729E+01  3.044545550366E+01  3.081080096970E+01  3.118053058134E+01
  3.155469694832E+01  3.193335331170E+01  3.231655355144E+01  3.270435219405E+01
  3.309680442038E+01  3.349396607343E+01  3.389589366631E+01  3.430264439030E+01
  3.471427612299E+01  3.513084743646E+01  3.555241760570E+01  3.597904661697E+01
  3.641079517637E+01  3.684772471849E+01  3.728989741511E+01  3.773737618409E+01
  3.819022469830E+01  3.864850739468E+01  3.911228948342E+01  3.958163695722E+01
  4.005661660071E+01  4.053729599991E+01  4.102374355191E+01  4.151602847454E+01
  4.201422081623E+01  4.251839146603E+01  4.302861216362E+01  4.354495550958E+01
  4.406749497570E+01
</grid-data>
</grid>
<valence-charge total-charge="6" is-unscreening-charge="yes"
 rescaled-to-z-pseudo="no">
<radfunc>
<data npts="457">
  1.450940920711E-02  1.457042737846E-02  1.475287923628E-02  1.505743205331E-02
  1.550467517847E-02  1.607596222294E-02  1.680507147382E-02  1.764135791073E-02
  1.858345087074E-02  1.968446054805E-02  2.092856302320E-02  2.228451902591E-02
  2.392842284757E-02  2.565134111804E-02  2.737865397870E-02  2.937592088261E-02
  3.168602505775E-02  3.388585436850E-02  3.637064064449E-02  3.917811687349E-02
  4.235121271673E-02  4.518556555057E-02  4.831320707003E-02  5.176539864589E-02
  5.557689731003E-02  5.978637186228E-02  6.443687103853E-02  6.824281512218E-02
  7.234592865790E-02  7.677033563086E-02  8.154222209997E-02  8.669002003344E-02
  9.224460697442E-02  9.823952246878E-02  1.047112020909E-01  1.116992297489E-01
  1.192466087213E-01  1.274000515463E-01  1.331972591315E-01  1.393023756390E-01
  1.457323933067E-01  1.525052528160E-01  1.596398903476E-01  1.671562854509E-01
  1.750755094145E-01  1.834197737511E-01  1.922124783216E-01  2.014782585272E-01
  2.112430308844E-01  2.215340361704E-01  2.323798791810E-01  2.438105639797E-01
  2.558575233358E-01  2.685536408459E-01  2.819332640093E-01  2.960322062814E-01
  3.108877358677E-01  3.265385487254E-01  3.430247229421E-01  3.603876513314E-01
  3.786699487553E-01  3.979153303359E-01  4.181684563809E-01  4.394747395087E-01
  4.618801091499E-01  4.854307283168E-01  5.101726573055E-01  5.230046328558E-01
  5.361514588295E-01  5.496186775287E-01  5.634117390124E-01  5.775359828571E-01
  5.919966187032E-01  6.067987055489E-01  6.219471297558E-01  6.374465817302E-01
  6.533015312506E-01  6.695162014119E-01  6.860945411636E-01  7.030401964205E-01
  7.203564797323E-01  7.380463385012E-01  7.561123217445E-01  7.745565454044E-01
  7.933806562143E-01  8.125857941400E-01  8.321725534190E-01  8.521409422338E-01
  8.724903410611E-01  8.932194597507E-01  9.143262933963E-01  9.358080770730E-01
  9.576612395268E-01  9.798813559124E-01  1.002463099691E+00  1.025400193806E+00
  1.048685361282E+00  1.072310275377E+00  1.096265509483E+00  1.120540486917E+00
  1.145123430832E+00  1.170001314429E+00  1.195159811726E+00  1.220583249102E+00
  1.246254557913E+00  1.272155228432E+00  1.298265265456E+00  1.324563145880E+00
  1.351025778615E+00  1.377628467228E+00  1.404344875711E+00  1.431146997834E+00
  1.458005130541E+00  1.484887851929E+00  1.511762004331E+00  1.538592683115E+00
  1.565343231820E+00  1.591975244304E+00  1.618448574613E+00  1.644721355342E+00
  1.670750025251E+00  1.696489366993E+00  1.721892555779E+00  1.746911219864E+00
  1.771495513716E+00  1.795594204748E+00  1.819154774429E+00  1.842123534582E+00
  1.864445759561E+00  1.886065834938E+00  1.906927423161E+00  1.926973646496E+00
  1.946147287361E+00  1.964391005925E+00  1.981647574546E+00  1.997860128367E+00
  2.012972430994E+00  2.026929153881E+00  2.039676167631E+00  2.051160843092E+00
  2.061332359721E+00  2.070142018396E+00  2.077543555523E+00  2.083493455068E+00
  2.087951254968E+00  2.090879844298E+00  2.092245747617E+00  2.092019393044E+00
  2.090175360913E+00  2.086692610222E+00  2.081554680661E+00  2.074749868605E+00
  2.066271376195E+00  2.056117433451E+00  2.044291394120E+00  2.030801806839E+00
  2.015662463843E+00  1.998892430101E+00  1.980516056144E+00  1.960562978012E+00
  1.939068107627E+00  1.916071616428E+00  1.891618914310E+00  1.865760624748E+00
  1.838552555584E+00  1.810055663274E+00  1.780336006648E+00  1.749464684516E+00
  1.717517749929E+00  1.684576092785E+00  1.650725281945E+00  1.616055002410E+00
  1.580656955241E+00  1.544621901903E+00  1.508038928381E+00  1.470995691751E+00
  1.433577947307E+00  1.395869364299E+00  1.357951313991E+00  1.319902678802E+00
  1.281799678774E+00  1.243715715685E+00  1.205721235030E+00  1.167883605929E+00
  1.130267018923E+00  1.092932401473E+00  1.055937350888E+00  1.019336084275E+00
  9.831794050298E-01  9.475146852797E-01  9.123858636382E-01  8.778334575351E-01
  8.438945893496E-01  8.106030255150E-01  7.779892277311E-01  7.460804153871E-01
  7.149006382805E-01  6.844708587035E-01  6.548090419638E-01  6.259302544120E-01
  5.978467680536E-01  5.705681708414E-01  5.441014817664E-01  5.184512698994E-01
  4.936197764955E-01  4.696070394940E-01  4.464110195342E-01  4.240277268319E-01
  4.024513482339E-01  3.816743738231E-01  3.616877224895E-01  3.424808659328E-01
  3.240419506056E-01  3.063579171559E-01  2.894146169701E-01  2.731969254677E-01
  2.576888518389E-01  2.428736449616E-01  2.287338952803E-01  2.152516324542E-01
  2.024084186388E-01  1.901854372867E-01  1.785635773909E-01  1.675235131255E-01
  1.570457788635E-01  1.471108395797E-01  1.376991566674E-01  1.287912492195E-01
  1.203677508414E-01  1.124094620794E-01  1.048973985606E-01  9.781283495387E-02
  9.113734486909E-02  8.485283682043E-02  7.894158638700E-02  7.338626470857E-02
  6.816996345910E-02  6.327621644439E-02  5.868901797287E-02  5.439283815135E-02
  5.037263525896E-02  4.661386535448E-02  4.310248927307E-02  3.982497716921E-02
  3.676831076337E-02  3.391998344927E-02  3.126799841887E-02  2.880086496067E-02
  2.650759308586E-02  2.437768663451E-02  2.240113501166E-02  2.056840369972E-02
  1.887042368996E-02  1.729857997121E-02  1.584469920921E-02  1.450103674429E-02
  1.326026302920E-02  1.211544962238E-02  1.106005484540E-02  1.008790920605E-02
  9.193200681471E-03  8.370459948192E-03  7.614545638663E-03  6.920629696365E-03
  6.284182894212E-03  5.700960573831E-03  5.166988656220E-03  4.678549967565E-03
  4.232170917466E-03  3.824608560698E-03  3.452838067769E-03  3.114040624133E-03
  2.805591772845E-03  2.525050210816E-03  2.270147044598E-03  2.038775507833E-03
  1.828981139122E-03  1.638952416100E-03  1.467011838948E-03  1.311607454403E-03
  1.171304809540E-03  1.044779323136E-03  9.308090613230E-04  8.282679034006E-04
  7.361190831196E-04  6.534090904285E-04  5.792619185458E-04  5.128736412726E-04
  4.535073056495E-04  4.004881253617E-04  3.531989606849E-04  3.110760712130E-04
  2.736051280958E-04  2.403174730322E-04  2.107866117802E-04  1.846249304634E-04
  1.614806234606E-04  1.410348221456E-04  1.229989142079E-04  1.071120437230E-04
  9.313878254669E-05  8.086696399437E-05  7.010567012537E-05  6.068336428884E-05
  5.244616090699E-05  4.525622477161E-05  3.899029241732E-05  3.353830841079E-05
  2.880216966164E-05  2.469457112088E-05  2.113794648776E-05  1.806349779700E-05
  1.541030800731E-05  1.312453095938E-05  1.115865331689E-05  9.470823349209E-06
  8.024241657444E-06  6.786609187545E-06  5.729628114093E-06  4.828551415728E-06
  4.061777197394E-06  3.410484044999E-06  2.858303923827E-06  2.391029352605E-06
  1.996351799725E-06  1.663628456114E-06  1.383674740197E-06  1.148580083609E-06
  9.515447316065E-07  7.867354689436E-07  6.491583502252E-07  5.345466731914E-07
  4.392625839136E-07  3.602108445327E-07  2.947634269517E-07  2.406937199412E-07
  1.961192526091E-07  1.594519443305E-07  1.293549903145E-07  1.047055832943E-07
  8.456275570074E-08  6.813970347185E-08  5.478002273511E-08  4.393735435180E-08
  3.515798912834E-08  2.806603876131E-08  2.235082467990E-08  1.775617925850E-08
  1.407139176398E-08  1.112356523295E-08  8.771180586748E-09  6.898691013137E-09
  5.411993283517E-09  4.234643523749E-09  3.304703290098E-09  2.572117872968E-09
  1.996542796851E-09  1.545546722879E-09  1.193129590827E-09  9.185040432072E-10
  7.050961217580E-10  5.397280669874E-10  4.119519205541E-10  3.135076504888E-10
  2.378837999364E-10  1.799622987736E-10  1.357321606573E-10  1.020593923151E-10
  7.650263457913E-11  5.716589491271E-11  4.258127063236E-11  3.161584567061E-11
  2.339801054330E-11  1.725933887776E-11  1.268888341627E-11  9.297354693135E-12
  6.789137823696E-12  4.940505107151E-12  3.582709741423E-12  2.588911809295E-12
  1.864102694170E-12  1.337367334451E-12  9.559628333730E-13  6.808032300265E-13
  4.830289447577E-13  3.414098585172E-13  2.403867213207E-13  1.685995151614E-13
  1.177858899159E-13  8.195976978271E-14  5.680124726790E-14  3.920519357704E-14
  2.694862240243E-14  1.844655020768E-14  1.257353773421E-14  8.533778431536E-15
  5.766927094002E-15  3.880109812110E-15  2.599064364614E-15  1.733166236426E-15
  1.150508852336E-15  7.602253137811E-16  5.000034486973E-16  3.273084891723E-16
  2.132406225918E-16  1.382563979335E-16  8.920241652372E-17  5.726860893964E-17
  3.658272300837E-17  0.000000000000E+00  0.000000000000E+00  0.000000000000E+00
  0.000000000000E+00  0.000000000000E+00  0.000000000000E+00  0.000000000000E+00
  0.000000000000E+00  0.000000000000E+00  0.000000000000E+00  0.000000000000E+00
  0.000000000000E+00  0.000000000000E+00  0.000000000000E+00  0.000000000000E+00
  0.000000000000E+00  0.000000000000E+00  0.000000000000E+00  0.000000000000E+00
  0.000000000000E+00  0.000000000000E+00  0.000000000000E+00  0.000000000000E+00
  0.000000000000E+00  0.000000000000E+00  0.000000000000E+00  0.000000000000E+00
  0.000000000000E+00  0.000000000000E+00  0.000000000000E+00  0.000000000000E+00
  0.000000000000E+00  0.000000000000E+00  0.000000000000E+00  0.000000000000E+00
  0.000000000000E+00  0.000000000000E+00  0.000000000000E+00  0.000000000000E+00
  0.000000000000E+00  0.000000000000E+00  0.000000000000E+00  0.000000000000E+00
  0.000000000000E+00  0.000000000000E+00  0.000000000000E+00  0.000000000000E+00
  0.000000000000E+00
</data>
</radfunc>
</valence-charge>
<pseudocore-charge matching-radius="0.912960105028"
 number-of-continuous-derivatives="4">
<annotation model-charge-form="Teter function with specified parameters" />
<radfunc>
<data npts="290">
  1.267167921539E+01  1.267090080373E+01  1.266857385909E+01  1.266469168084E+01
  1.265899516026E+01  1.265172655409E+01  1.264246270566E+01  1.263185464999E+01
  1.261992683371E+01  1.260601685033E+01  1.259033757376E+01  1.257329486028E+01
  1.255269718805E+01  1.253118436900E+01  1.250969292670E+01  1.248493695779E+01
  1.245642818626E+01  1.242940334183E+01  1.239902044832E+01  1.236487161072E+01
  1.232650190651E+01  1.229242849108E+01  1.225504517829E+01  1.221404164108E+01
  1.216908080658E+01  1.211979705263E+01  1.206579439610E+01  1.202193933357E+01
  1.197499671289E+01  1.192476238056E+01  1.187102071697E+01  1.181354431584E+01
  1.175209371317E+01  1.168641717858E+01  1.161625058405E+01  1.154131736736E+01
  1.146132860964E+01  1.137598324931E+01  1.131595643729E+01  1.125331462333E+01
  1.118796020271E+01  1.111979357069E+01  1.104871326512E+01  1.097461613469E+01
  1.089739753522E+01  1.081695155673E+01  1.073317128364E+01  1.064594909106E+01
  1.055517697999E+01  1.046074695448E+01  1.036255144365E+01  1.026048377187E+01
  1.015443868008E+01  1.004431290156E+01  9.930005795048E+00  9.811420038351E+00
  9.688462385249E+00  9.561044488283E+00  9.429083789783E+00  9.292504483067E+00
  9.151238545244E+00  9.005226842474E+00  8.854420307773E+00  8.698781190605E+00
  8.538284376440E+00  8.372918773251E+00  8.202688760547E+00  8.115755569184E+00
  8.027615694905E+00  7.938274714967E+00  7.847739464191E+00  7.756018085467E+00
  7.663120080594E+00  7.569056361302E+00  7.473839300352E+00  7.377482782555E+00
  7.280002255567E+00  7.181414780297E+00  7.081739080747E+00  6.980995593100E+00
  6.879206513842E+00  6.776395846728E+00  6.672589448330E+00  6.567815071957E+00
  6.462102409672E+00  6.355483132135E+00  6.247990926003E+00  6.139661528579E+00
  6.030532759400E+00  5.920644548445E+00  5.810038960620E+00  5.698760216186E+00
  5.586854706749E+00  5.474371006456E+00  5.361359878022E+00  5.247874273182E+00
  5.133969327193E+00  5.019702346970E+00  4.905132792461E+00  4.790322250859E+00
  4.675334403235E+00  4.560234983205E+00  4.445091727225E+00  4.329974316136E+00
  4.214954307580E+00  4.100105058937E+00  3.985501640437E+00  3.871220738143E+00
  3.757340546502E+00  3.643940650241E+00  3.531101895359E+00  3.418906249067E+00
  3.307436648540E+00  3.196776838418E+00  3.087011197034E+00  2.978224551425E+00
  2.870501981263E+00  2.763928611882E+00  2.658589396704E+00  2.554568889416E+00
  2.451951006386E+00  2.350818779846E+00  2.251254102538E+00  2.153337464582E+00
  2.057147683446E+00  1.962761628032E+00  1.870253937985E+00  1.779696739460E+00
  1.691159358719E+00  1.604708035006E+00  1.520405634319E+00  1.438311365764E+00
  1.358480502323E+00  1.280964107931E+00  1.205808772893E+00  1.133056359714E+00
  1.062743761525E+00  9.949026753021E-01  9.295593921616E-01  8.667346069881E-01
  8.064432496901E-01  7.486943403293E-01  6.934908703328E-01  6.408297119161E-01
  5.907015577388E-01  5.430908926815E-01  4.979759994595E-01  4.553289995901E-01
  4.151159309938E-01  3.772968632400E-01  3.418260511463E-01  3.086521271037E-01
  2.777183321357E-01  2.489627853048E-01  2.223187906589E-01  1.977151804721E-01
  1.750766930721E-01  1.543243830821E-01  1.353760614289E-01  1.181467619959E-01
  1.025492313402E-01  8.849443744948E-02  7.589209309731E-02  6.465118897801E-02
  5.468053147060E-02  4.588927960566E-02  3.818747560040E-02  3.148656319381E-02
  2.569988796466E-02  2.074317385770E-02  1.653497028386E-02  1.299706440405E-02
  1.005485355536E-02  7.637673233875E-03  5.679076609148E-03  4.117062205207E-03
  2.894247136677E-03  1.957984123891E-03  1.260421415574E-03  7.585057048770E-04
  4.139291151126E-04  1.930223339375E-04  6.659696488234E-05  9.741117815604E-06
  1.573148663649E-06  2.495925703769E-05  6.620133251531E-05  1.147019820578E-04
  1.626140509522E-04  2.044821499767E-04  2.368837091201E-04  2.580768856566E-04
  2.676622606067E-04  2.662646685158E-04  2.552407343410E-04  2.364167588038E-04
  2.118605277863E-04  1.836894567934E-04  1.539162583499E-04  1.243320829132E-04
  9.642587946818E-05  7.133759801849E-05  4.984185858432E-05  3.235788194692E-05
  1.898085169806E-05  9.529482015624E-06  3.604417270296E-06  6.521922914918E-07
  2.982712839659E-08  1.065695515046E-06  3.113057513789E-06  5.593538415285E-06
  8.028813591261E-06  1.005976261788E-05  1.145332361967E-05  1.209815056412E-05
  1.199089867871E-05  1.121549320748E-05  9.918045263308E-06  8.280153036299E-06
  6.493172588751E-06  4.735683456776E-06  3.155850361990E-06  1.859747026559E-06
  9.060238574662E-07  3.066340077755E-07  3.274516619300E-08  2.451155335147E-08
  2.031016691279E-07  4.832931624770E-07  7.850563159184E-07  1.042830103396E-06
  1.211608435954E-06  1.269443324810E-06  1.216472561099E-06  1.071028313338E-06
  8.637240135710E-07  6.306097525843E-07  4.065118998338E-07  2.195354542392E-07
  8.743573144677E-08  1.620677528892E-08  0.000000000000E+00  0.000000000000E+00
  0.000000000000E+00  0.000000000000E+00  0.000000000000E+00  0.000000000000E+00
  0.000000000000E+00  0.000000000000E+00  0.000000000000E+00  0.000000000000E+00
  0.000000000000E+00  0.000000000000E+00  0.000000000000E+00  0.000000000000E+00
  0.000000000000E+00  0.000000000000E+00  0.000000000000E+00  0.000000000000E+00
  0.000000000000E+00  0.000000000000E+00  0.000000000000E+00  0.000000000000E+00
  0.000000000000E+00  0.000000000000E+00  0.000000000000E+00  0.000000000000E+00
  0.000000000000E+00  0.000000000000E+00  0.000000000000E+00  0.000000000000E+00
  0.000000000000E+00  0.000000000000E+00  0.000000000000E+00  0.000000000000E+00
  0.000000000000E+00  0.000000000000E+00  0.000000000000E+00  0.000000000000E+00
  0.000000000000E+00  0.000000000000E+00  0.000000000000E+00  0.000000000000E+00
  0.000000000000E+00  0.000000000000E+00  0.000000000000E+00  0.000000000000E+00
  0.000000000000E+00  0.000000000000E+00
</data>
</radfunc>
</pseudocore-charge>
<semilocal-potentials set="scalar_relativistic">
<slps n="3" l="s" rc="1.45375689512">
<radfunc>
<data npts="290">
  5.029446195131E+01  5.026525252924E+01  5.017809424086E+01  5.003321177422E+01
  4.982180707460E+01  4.955409367256E+01  4.921615495023E+01  4.883360146208E+01
  4.840899007845E+01  4.792106726760E+01  4.738022600669E+01  4.680306257266E+01
  4.611996261948E+01  4.542286439713E+01  4.474257590356E+01  4.397820645537E+01
  4.312251324277E+01  4.233462680856E+01  4.147471062315E+01  4.053941395647E+01
  3.952594573470E+01  3.865747185570E+01  3.773698113703E+01  3.676425236769E+01
  3.573954807605E+01  3.466366645064E+01  3.353798655631E+01  3.266222315755E+01
  3.176063542920E+01  3.083450675197E+01  2.988532588048E+01  2.891478351448E+01
  2.792476550652E+01  2.691734259333E+01  2.589475662747E+01  2.485940338323E+01
  2.381381211340E+01  2.276062213669E+01  2.205561623931E+01  2.134926432577E+01
  2.064239553511E+01  1.993584220299E+01  1.923043580367E+01  1.852700286568E+01
  1.782636090158E+01  1.712931439194E+01  1.643665086426E+01  1.574913710644E+01
  1.506751555370E+01  1.439250088588E+01  1.372477687064E+01  1.306499348538E+01
  1.241376434839E+01  1.177166448700E+01  1.113922846741E+01  1.051694890801E+01
  9.905275394679E+00  9.304613813416E+00  8.715326112284E+00  8.137730501169E+00
  7.572102094277E+00  7.018673996490E+00  6.477638830480E+00  5.949150697047E+00
  5.433327555965E+00  4.930254009008E+00  4.439984460236E+00  4.199660785438E+00
  3.962546621310E+00  3.728641886318E+00  3.497945321238E+00  3.270454621237E+00
  3.046166570498E+00  2.825077178756E+00  2.607181819173E+00  2.392475366840E+00
  2.180952337175E+00  1.972607023455E+00  1.767433632611E+00  1.565426418477E+00
  1.366579811465E+00  1.170888543787E+00  9.783477691137E-01  7.889531756986E-01
  6.027010917744E-01  4.195885821840E-01  2.396135350373E-01  6.277473726100E-02
 -1.109280621383E-01 -2.814941022342E-01 -4.489215749266E-01 -6.132076053315E-01
 -7.743482489310E-01 -9.323385063635E-01 -1.087172356733E+00 -1.238842810414E+00
 -1.387341981579E+00 -1.532661181314E+00 -1.674791031313E+00 -1.813721598343E+00
 -1.949442549215E+00 -2.081943325805E+00 -2.211213339372E+00 -2.337242182978E+00
 -2.460019860632E+00 -2.579537031241E+00 -2.695785265102E+00 -2.808757310307E+00
 -2.918447365894E+00 -3.024851358265E+00 -3.127967216851E+00 -3.227795144711E+00
 -3.324337879301E+00 -3.417600938294E+00 -3.507592845121E+00 -3.594325328591E+00
 -3.677813490853E+00 -3.758075937865E+00 -3.835134866611E+00 -3.909016103425E+00
 -3.979749088017E+00 -4.047366798251E+00 -4.111905611116E+00 -4.173405096048E+00
 -4.231907737385E+00 -4.287458583706E+00 -4.340104822691E+00 -4.389895281287E+00
 -4.436879852262E+00 -4.481108849657E+00 -4.522632297392E+00 -4.561499157259E+00
 -4.597756504937E+00 -4.631448665438E+00 -4.662616322644E+00 -4.691295621358E+00
 -4.717517284443E+00 -4.741305772121E+00 -4.762678515099E+00 -4.781645257666E+00
 -4.798207550779E+00 -4.812358438015E+00 -4.824082378734E+00 -4.833355452148E+00
 -4.840145883035E+00 -4.844414924020E+00 -4.846118120663E+00 -4.845206973761E+00
 -4.841630998623E+00 -4.835340163777E+00 -4.826287672065E+00 -4.814433025861E+00
 -4.799745296114E+00 -4.782206492241E+00 -4.761814908202E+00 -4.738588299407E+00
 -4.712566727201E+00 -4.683814893233E+00 -4.652423776558E+00 -4.618511383300E+00