Bi    ONCVPSP-3.3.0  r_core=   1.40250   1.50656   1.40250
83.0000     23.0000      180507    zatom,zion,pspd
8      11   2     4   600     0    pspcod,pspxc,lmax,lloc,mmax,r2well
5.99000000  6.00000000  0.00000000    rchrg fchrg qchrg
2     4     4     0    nproj
3     1           extension_switch
4     4     0    nprojso
0                         2.2940839897876D+00  1.6846737923763D+01
1  0.0000000000000D+00  2.1223546253779D-09 -8.1499107462690D-10
2  1.0000000000000D-02 -2.3417893544963D-02  8.5823769506855D-02
3  2.0000000000000D-02 -4.6578407062036D-02  1.7139661668012D-01
4  3.0000000000000D-02 -6.9226695114451D-02  2.5646890356200D-01
5  4.0000000000000D-02 -9.1112946025276D-02  3.4079354704456D-01
6  5.0000000000000D-02 -1.1199481075257D-01  4.2412726175234D-01
7  6.0000000000000D-02 -1.3163972769394D-01  5.0623176206399D-01
8  7.0000000000000D-02 -1.4982711126394D-01  5.8687491062597D-01
9  8.0000000000000D-02 -1.6635037421031D-01  6.6583180152644D-01
10  9.0000000000000D-02 -1.8101875622696D-01  7.4288576729230D-01
11  1.0000000000000D-01 -1.9365893444454D-01  8.1782930003162D-01
12  1.1000000000000D-01 -2.0411639478621D-01  8.9046487834978D-01
13  1.2000000000000D-01 -2.1225654691610D-01  9.6060569309958D-01
14  1.3000000000000D-01 -2.1796556952280D-01  1.0280762665616D+00
15  1.4000000000000D-01 -2.2115097690871D-01  1.0927129612663D+00
16  1.5000000000000D-01 -2.2174190223361D-01  1.1543643763399D+00
17  1.6000000000000D-01 -2.1968909721754D-01  1.2128916309532D+00
18  1.7000000000000D-01 -2.1496465257784D-01  1.2681685361501D+00
19  1.8000000000000D-01 -2.0756144788343D-01  1.3200816580070D+00
20  1.9000000000000D-01 -1.9749234379105D-01  1.3685302766887D+00
21  2.0000000000000D-01 -1.8478913371041D-01  1.4134262475082D+00
22  2.1000000000000D-01 -1.6950127576597D-01  1.4546937715273D+00
23  2.2000000000000D-01 -1.5169442941696D-01  1.4922690845409D+00
24  2.3000000000000D-01 -1.3144882420793D-01  1.5261000744367D+00
25  2.4000000000000D-01 -1.0885749079709D-01  1.5561458379037D+00
26  2.5000000000000D-01 -8.4024386600889D-02  1.5823761882522D+00
27  2.6000000000000D-01 -5.7062450063231D-02  1.6047711266962D+00
28  2.7000000000000D-01 -2.8091618673903D-02  1.6233202898173D+00
29  2.8000000000000D-01  2.7631536011162D-03  1.6380223860806D+00
30  2.9000000000000D-01  3.5373843867666D-02  1.6488846341879D+00
31  3.0000000000000D-01  6.9611237870808D-02  1.6559222157444D+00
32  3.1000000000000D-01  1.0534670386771D-01  1.6591577541773D+00
33  3.2000000000000D-01  1.4245383091676D-01  1.6586208310829D+00
34  3.3000000000000D-01  1.8080990207746D-01  1.6543475502111D+00
35  3.4000000000000D-01  2.2029717592531D-01  1.6463801581250D+00
36  3.5000000000000D-01  2.6080395318104D-01  1.6347667292281D+00
37  3.6000000000000D-01  3.0222540908629D-01  1.6195609213408D+00
38  3.7000000000000D-01  3.4446417636963D-01  1.6008218063619D+00
39  3.8000000000000D-01  3.8743066817638D-01  1.5786137787963D+00
40  3.9000000000000D-01  4.3104313510957D-01  1.5530065430901D+00
41  4.0000000000000D-01  4.7522745547704D-01  1.5240751788220D+00
42  4.1000000000000D-01  5.1991666287698D-01  1.4919002808911D+00
43  4.2000000000000D-01  5.6505022030328D-01  1.4565681699404D+00
44  4.3000000000000D-01  6.1057305492612D-01  1.4181711664017D+00
45  4.4000000000000D-01  6.5643437251917D-01  1.3768079197757D+00
46  4.5000000000000D-01  7.0258627507956D-01  1.3325837830972D+00
47  4.6000000000000D-01  7.4898220943807D-01  1.2856112210186D+00
48  4.7000000000000D-01  7.9557527850879D-01  1.2360102385989D+00
49  4.8000000000000D-01  8.4231645020569D-01  1.1839088167453D+00
50  4.9000000000000D-01  8.8915270189295D-01  1.1294433393369D+00
51  5.0000000000000D-01  9.3602514047681D-01  1.0727589963950D+00
52  5.1000000000000D-01  9.8286713983793D-01  1.0140101472674D+00
53  5.2000000000000D-01  1.0296025382062D+00  9.5336062767601D-01
54  5.3000000000000D-01  1.0761439382593D+00  8.9098398465805D-01
55  5.4000000000000D-01  1.1223911521682D+00  8.2706362390397D-01
56  5.5000000000000D-01  1.1682298325047D+00  7.6179285477296D-01
57  5.6000000000000D-01  1.2135303278708D+00  6.9537481933895D-01
58  5.7000000000000D-01  1.2581467993358D+00  6.2802229317509D-01
59  5.8000000000000D-01  1.3019166302758D+00  5.5995734722138D-01
60  5.9000000000000D-01  1.3446601580876D+00  4.9141086195739D-01
61  6.0000000000000D-01  1.3861807514801D+00  4.2262188722751D-01
62  6.1000000000000D-01  1.4262652517871D+00  3.5383684337199D-01
63  6.2000000000000D-01  1.4646847909580D+00  2.8530856181792D-01
64  6.3000000000000D-01  1.5011959927605D+00  2.1729516589707D-01
65  6.4000000000000D-01  1.5355425572880D+00  1.5005879537938D-01
66  6.5000000000000D-01  1.5674572222151D+00  8.3864180987948D-02
67  6.6000000000000D-01  1.5966640875483D+00  1.8977077933063D-02
68  6.7000000000000D-01  1.6228812838874D+00 -4.4337429740519D-02
69  6.8000000000000D-01  1.6458239576381D+00 -1.0581673953495D-01
70  6.9000000000000D-01  1.6652075402771D+00 -1.6520263861235D-01
71  7.0000000000000D-01  1.6807512627784D+00 -2.2224329027626D-01
72  7.1000000000000D-01  1.6921818707554D+00 -2.7669527729803D-01
73  7.2000000000000D-01  1.6992374908982D+00 -3.2832567867366D-01
74  7.3000000000000D-01  1.7016715949495D+00 -3.7691415479108D-01
75  7.4000000000000D-01  1.6992570038689D+00 -4.2225501471604D-01
76  7.5000000000000D-01  1.6917898720506D+00 -4.6415923838815D-01
77  7.6000000000000D-01  1.6790935895623D+00 -5.0245642598911D-01
78  7.7000000000000D-01  1.6610225394081D+00 -5.3699664662022D-01
79  7.8000000000000D-01  1.6374656468252D+00 -5.6765215871716D-01
80  7.9000000000000D-01  1.6083496586261D+00 -5.9431897534815D-01
81  8.0000000000000D-01  1.5736420926104D+00 -6.1691824868555D-01
82  8.1000000000000D-01  1.5333538000767D+00 -6.3539744950585D-01
83  8.2000000000000D-01  1.4875410884473D+00 -6.4973131954610D-01
84  8.3000000000000D-01  1.4363073559400D+00 -6.5992257690712D-01
85  8.4000000000000D-01  1.3798041960172D+00 -6.6600235741887D-01
86  8.5000000000000D-01  1.3182319359457D+00 -6.6803037793644D-01
87  8.6000000000000D-01  1.2518395811404D+00 -6.6609481088824D-01
88  8.7000000000000D-01  1.1809241449118D+00 -6.6031186298900D-01
89  8.8000000000000D-01  1.1058293517226D+00 -6.5082505483525D-01
90  8.9000000000000D-01  1.0269437108899D+00 -6.3780420203041D-01
91  9.0000000000000D-01  9.4469796683604D-01 -6.2144410253854D-01
92  9.1000000000000D-01  8.5956194121681D-01 -6.0196293902100D-01
93  9.2000000000000D-01  7.7204079150172D-01 -5.7960040895250D-01
94  9.3000000000000D-01  6.8267071966122D-01 -5.5461559925940D-01
95  9.4000000000000D-01  5.9201417338892D-01 -5.2728462601911D-01
96  9.5000000000000D-01  5.0065459061777D-01 -4.9789806334244D-01
97  9.6000000000000D-01  4.0919074583602D-01 -4.6675818887398D-01
98  9.7000000000000D-01  3.1823076374098D-01 -4.3417607633262D-01
99  9.8000000000000D-01  2.2838587196262D-01 -4.0046856812473D-01
100  9.9000000000000D-01  1.4026396985313D-01 -3.6595516325608D-01
101  1.0000000000000D+00  5.4463094502358D-02 -3.3095485747641D-01
102  1.0100000000000D+00 -2.8435131762507D-02 -2.9578297382961D-01
103  1.0200000000000D+00 -1.0787198622563D-01 -2.6074802249436D-01
104  1.0300000000000D+00 -1.8331797623650D-01 -2.2614862893635D-01
105  1.0400000000000D+00 -2.5427892912161D-01 -1.9227056901550D-01
106  1.0500000000000D+00 -3.2030175739521D-01 -1.5938394870877D-01
107  1.0600000000000D+00 -3.8097981834527D-01 -1.2774056459038D-01
108  1.0700000000000D+00 -4.3595779123138D-01 -9.7571479294322D-02
109  1.0800000000000D+00 -4.8493600145162D-01 -6.9084843412480D-02
110  1.0900000000000D+00 -5.2767412740257D-01 -4.2463992422089D-02
111  1.1000000000000D+00 -5.6399423413327D-01 -1.7865843498660D-02
112  1.1100000000000D+00 -5.9378308587926D-01  4.5803864767046D-03
113  1.1200000000000D+00 -6.1699369956579D-01  2.4774124835337D-02
114  1.1300000000000D+00 -6.3364611187533D-01  4.2644036715851D-02
115  1.1400000000000D+00 -6.4382734323300D-01  5.8148260819673D-02
116  1.1500000000000D+00 -6.4769055279101D-01  7.1274284521451D-02
117  1.1600000000000D+00 -6.4545338962079D-01  8.2038460407774D-02
118  1.1700000000000D+00 -6.3739555816225D-01  9.0485171934774D-02
119  1.1800000000000D+00 -6.2385562688374D-01  9.6685660658206D-02
120  1.1900000000000D+00 -6.0522711798287D-01  1.0073653136731D-01
121  1.2000000000000D+00 -5.8195392936046D-01  1.0275795729974D-01
122  1.2100000000000D+00 -5.5452514920820D-01  1.0289161158241D-01
123  1.2200000000000D+00 -5.2346933213513D-01  1.0129835478449D-01
124  1.2300000000000D+00 -4.8934831286348D-01  9.8155711563234D-02
125  1.2400000000000D+00 -4.5275064412702D-01  9.3655174000692D-02
126  1.2500000000000D+00 -4.1428474858679D-01  8.7999370621701D-02
127  1.2600000000000D+00 -3.7457187916933D-01  8.1399142044712D-02
128  1.2700000000000D+00 -3.3423899527320D-01  7.4070569576527D-02
129  1.2800000000000D+00 -2.9391165525644D-01  6.6232000621098D-02
130  1.2900000000000D+00 -2.5420678661871D-01  5.8101021898282D-02
131  1.3000000000000D+00 -2.1572607760243D-01  4.9891674407872D-02
132  1.3100000000000D+00 -1.7905080065076D-01  4.1812209487585D-02
133  1.3200000000000D+00 -1.4472760625943D-01  3.4059455564504D-02
134  1.3300000000000D+00 -1.1325512600707D-01  2.6813450766453D-02
135  1.3400000000000D+00 -8.5070084292742D-02  2.0231842553947D-02
136  1.3500000000000D+00 -6.0542313767848D-02  1.4447668945010D-02
137  1.3600000000000D+00 -3.9984219443250D-02  9.5708755835682D-03
138  1.3700000000000D+00 -2.3575199073365D-02  5.6692784510091D-03
139  1.3800000000000D+00 -1.1441259012520D-02  2.7867884614317D-03
140  1.3900000000000D+00 -4.0513165463123D-03  1.0447204097214D-03
141  1.4000000000000D+00 -8.3232036031372D-04  2.8777562677115D-04
142  1.4100000000000D+00  2.3918084560011D-05  4.4352033383079D-05
143  1.4200000000000D+00 -5.7233376437618D-06 -3.9234538268860D-07
144  1.4300000000000D+00 -3.8827280497713D-05  1.3833842942953D-06
145  1.4400000000000D+00  3.5533293859034D-06  6.2737800020671D-07
146  1.4500000000000D+00  3.5241307443768D-06  3.2944629426336D-07
147  1.4600000000000D+00  1.2786773510494D-06 -5.3529744181707D-07
148  1.4700000000000D+00  2.3690542050733D-07 -9.9176594819714D-08
149  1.4800000000000D+00  0.0000000000000D+00  0.0000000000000D+00
150  1.4900000000000D+00  0.0000000000000D+00  0.0000000000000D+00
151  1.5000000000000D+00  0.0000000000000D+00  0.0000000000000D+00
152  1.5100000000000D+00  0.0000000000000D+00  0.0000000000000D+00
153  1.5200000000000D+00  0.0000000000000D+00  0.0000000000000D+00
154  1.5300000000000D+00  0.0000000000000D+00  0.0000000000000D+00
155  1.5400000000000D+00  0.0000000000000D+00  0.0000000000000D+00
156  1.5500000000000D+00  0.0000000000000D+00  0.0000000000000D+00
157  1.5600000000000D+00  0.0000000000000D+00  0.0000000000000D+00
158  1.5700000000000D+00  0.0000000000000D+00  0.0000000000000D+00
159  1.5800000000000D+00  0.0000000000000D+00  0.0000000000000D+00
160  1.5900000000000D+00  0.0000000000000D+00  0.0000000000000D+00
161  1.6000000000000D+00  0.0000000000000D+00  0.0000000000000D+00
162  1.6100000000000D+00  0.0000000000000D+00  0.0000000000000D+00
163  1.6200000000000D+00  0.0000000000000D+00  0.0000000000000D+00
164  1.6300000000000D+00  0.0000000000000D+00  0.0000000000000D+00
165  1.6400000000000D+00  0.0000000000000D+00  0.0000000000000D+00
166  1.6500000000000D+00  0.0000000000000D+00  0.0000000000000D+00
167  1.6600000000000D+00  0.0000000000000D+00  0.0000000000000D+00
168  1.6700000000000D+00  0.0000000000000D+00  0.0000000000000D+00
169  1.6800000000000D+00  0.0000000000000D+00  0.0000000000000D+00
170  1.6900000000000D+00  0.0000000000000D+00  0.0000000000000D+00
171  1.7000000000000D+00  0.0000000000000D+00  0.0000000000000D+00
172  1.7100000000000D+00  0.0000000000000D+00  0.0000000000000D+00
173  1.7200000000000D+00  0.0000000000000D+00  0.0000000000000D+00
174  1.7300000000000D+00  0.0000000000000D+00  0.0000000000000D+00
175  1.7400000000000D+00  0.0000000000000D+00  0.0000000000000D+00
176  1.7500000000000D+00  0.0000000000000D+00  0.0000000000000D+00
177  1.7600000000000D+00  0.0000000000000D+00  0.0000000000000D+00
178  1.7700000000000D+00  0.0000000000000D+00  0.0000000000000D+00
179  1.7800000000000D+00  0.0000000000000D+00  0.0000000000000D+00
180  1.7900000000000D+00  0.0000000000000D+00  0.0000000000000D+00
181  1.8000000000000D+00  0.0000000000000D+00  0.0000000000000D+00
182  1.8100000000000D+00  0.0000000000000D+00  0.0000000000000D+00
183  1.8200000000000D+00  0.0000000000000D+00  0.0000000000000D+00
184  1.8300000000000D+00  0.0000000000000D+00  0.0000000000000D+00
185  1.8400000000000D+00  0.0000000000000D+00  0.0000000000000D+00
186  1.8500000000000D+00  0.0000000000000D+00  0.0000000000000D+00
187  1.8600000000000D+00  0.0000000000000D+00  0.0000000000000D+00
188  1.8700000000000D+00  0.0000000000000D+00  0.0000000000000D+00
189  1.8800000000000D+00  0.0000000000000D+00  0.0000000000000D+00
190  1.8900000000000D+00  0.0000000000000D+00  0.0000000000000D+00
191  1.9000000000000D+00  0.0000000000000D+00  0.0000000000000D+00
192  1.9100000000000D+00  0.0000000000000D+00  0.0000000000000D+00
193  1.9200000000000D+00  0.0000000000000D+00  0.0000000000000D+00
194  1.9300000000000D+00  0.0000000000000D+00  0.0000000000000D+00
195  1.9400000000000D+00  0.0000000000000D+00  0.0000000000000D+00
196  1.9500000000000D+00  0.0000000000000D+00  0.0000000000000D+00
197  1.9600000000000D+00  0.0000000000000D+00  0.0000000000000D+00
198  1.9700000000000D+00  0.0000000000000D+00  0.0000000000000D+00
199  1.9800000000000D+00  0.0000000000000D+00  0.0000000000000D+00
200  1.9900000000000D+00  0.0000000000000D+00  0.0000000000000D+00
201  2.0000000000000D+00  0.0000000000000D+00  0.0000000000000D+00
202  2.0100000000000D+00  0.0000000000000D+00  0.0000000000000D+00
203  2.0200000000000D+00  0.0000000000000D+00  0.0000000000000D+00
204  2.0300000000000D+00  0.0000000000000D+00  0.0000000000000D+00
205  2.0400000000000D+00  0.0000000000000D+00  0.0000000000000D+00
206  2.0500000000000D+00  0.0000000000000D+00  0.0000000000000D+00
207  2.0600000000000D+00  0.0000000000000D+00  0.0000000000000D+00
208  2.0700000000000D+00  0.0000000000000D+00  0.0000000000000D+00
209  2.0800000000000D+00  0.0000000000000D+00  0.0000000000000D+00
210  2.0900000000000D+00  0.0000000000000D+00  0.0000000000000D+00
211  2.1000000000000D+00  0.0000000000000D+00  0.0000000000000D+00
212  2.1100000000000D+00  0.0000000000000D+00  0.0000000000000D+00
213  2.1200000000000D+00  0.0000000000000D+00  0.0000000000000D+00
214  2.1300000000000D+00  0.0000000000000D+00  0.0000000000000D+00
215  2.1400000000000D+00  0.0000000000000D+00  0.0000000000000D+00
216  2.1500000000000D+00  0.0000000000000D+00  0.0000000000000D+00
217  2.1600000000000D+00  0.0000000000000D+00  0.0000000000000D+00
218  2.1700000000000D+00  0.0000000000000D+00  0.0000000000000D+00
219  2.1800000000000D+00  0.0000000000000D+00  0.0000000000000D+00
220  2.1900000000000D+00  0.0000000000000D+00  0.0000000000000D+00
221  2.2000000000000D+00  0.0000000000000D+00  0.0000000000000D+00
222  2.2100000000000D+00  0.0000000000000D+00  0.0000000000000D+00
223  2.2200000000000D+00  0.0000000000000D+00  0.0000000000000D+00
224  2.2300000000000D+00  0.0000000000000D+00  0.0000000000000D+00
225  2.2400000000000D+00  0.0000000000000D+00  0.0000000000000D+00
226  2.2500000000000D+00  0.0000000000000D+00  0.0000000000000D+00
227  2.2600000000000D+00  0.0000000000000D+00  0.0000000000000D+00
228  2.2700000000000D+00  0.0000000000000D+00  0.0000000000000D+00
229  2.2800000000000D+00  0.0000000000000D+00  0.0000000000000D+00
230  2.2900000000000D+00  0.0000000000000D+00  0.0000000000000D+00
231  2.3000000000000D+00  0.0000000000000D+00  0.0000000000000D+00
232  2.3100000000000D+00  0.0000000000000D+00  0.0000000000000D+00
233  2.3200000000000D+00  0.0000000000000D+00  0.0000000000000D+00
234  2.3300000000000D+00  0.0000000000000D+00  0.0000000000000D+00
235  2.3400000000000D+00  0.0000000000000D+00  0.0000000000000D+00
236  2.3500000000000D+00  0.0000000000000D+00  0.0000000000000D+00
237  2.3600000000000D+00  0.0000000000000D+00  0.0000000000000D+00
238  2.3700000000000D+00  0.0000000000000D+00  0.0000000000000D+00
239  2.3800000000000D+00  0.0000000000000D+00  0.0000000000000D+00
240  2.3900000000000D+00  0.0000000000000D+00  0.0000000000000D+00
241  2.4000000000000D+00  0.0000000000000D+00  0.0000000000000D+00
242  2.4100000000000D+00  0.0000000000000D+00  0.0000000000000D+00
243  2.4200000000000D+00  0.0000000000000D+00  0.0000000000000D+00
244  2.4300000000000D+00  0.0000000000000D+00  0.0000000000000D+00
245  2.4400000000000D+00  0.0000000000000D+00  0.0000000000000D+00
246  2.4500000000000D+00  0.0000000000000D+00  0.0000000000000D+00
247  2.4600000000000D+00  0.0000000000000D+00  0.0000000000000D+00
248  2.4700000000000D+00  0.0000000000000D+00  0.0000000000000D+00
249  2.4800000000000D+00  0.0000000000000D+00  0.0000000000000D+00
250  2.4900000000000D+00  0.0000000000000D+00  0.0000000000000D+00
251  2.5000000000000D+00  0.0000000000000D+00  0.0000000000000D+00
252  2.5100000000000D+00  0.0000000000000D+00  0.0000000000000D+00
253  2.5200000000000D+00  0.0000000000000D+00  0.0000000000000D+00
254  2.5300000000000D+00  0.0000000000000D+00  0.0000000000000D+00
255  2.5400000000000D+00  0.0000000000000D+00  0.0000000000000D+00
256  2.5500000000000D+00  0.0000000000000D+00  0.0000000000000D+00
257  2.5600000000000D+00  0.0000000000000D+00  0.0000000000000D+00
258  2.5700000000000D+00  0.0000000000000D+00  0.0000000000000D+00
259  2.5800000000000D+00  0.0000000000000D+00  0.0000000000000D+00
260  2.5900000000000D+00  0.0000000000000D+00  0.0000000000000D+00
261  2.6000000000000D+00  0.0000000000000D+00  0.0000000000000D+00
262  2.6100000000000D+00  0.0000000000000D+00  0.0000000000000D+00
263  2.6200000000000D+00  0.0000000000000D+00  0.0000000000000D+00
264  2.6300000000000D+00  0.0000000000000D+00  0.0000000000000D+00
265  2.6400000000000D+00  0.0000000000000D+00  0.0000000000000D+00
266  2.6500000000000D+00  0.0000000000000D+00  0.0000000000000D+00
267  2.6600000000000D+00  0.0000000000000D+00  0.0000000000000D+00
268  2.6700000000000D+00  0.0000000000000D+00  0.0000000000000D+00
269  2.6800000000000D+00  0.0000000000000D+00  0.0000000000000D+00
270  2.6900000000000D+00  0.0000000000000D+00  0.0000000000000D+00
271  2.7000000000000D+00  0.0000000000000D+00  0.0000000000000D+00
272  2.7100000000000D+00  0.0000000000000D+00  0.0000000000000D+00
273  2.7200000000000D+00  0.0000000000000D+00  0.0000000000000D+00
274  2.7300000000000D+00  0.0000000000000D+00  0.0000000000000D+00
275  2.7400000000000D+00  0.0000000000000D+00  0.0000000000000D+00
276  2.7500000000000D+00  0.0000000000000D+00  0.0000000000000D+00
277  2.7600000000000D+00  0.0000000000000D+00  0.0000000000000D+00
278  2.7700000000000D+00  0.0000000000000D+00  0.0000000000000D+00
279  2.7800000000000D+00  0.0000000000000D+00  0.0000000000000D+00
280  2.7900000000000D+00  0.0000000000000D+00  0.0000000000000D+00
281  2.8000000000000D+00  0.0000000000000D+00  0.0000000000000D+00
282  2.8100000000000D+00  0.0000000000000D+00  0.0000000000000D+00
283  2.8200000000000D+00  0.0000000000000D+00  0.0000000000000D+00
284  2.8300000000000D+00  0.0000000000000D+00  0.0000000000000D+00
285  2.8400000000000D+00  0.0000000000000D+00  0.0000000000000D+00
286  2.8500000000000D+00  0.0000000000000D+00  0.0000000000000D+00
287  2.8600000000000D+00  0.0000000000000D+00  0.0000000000000D+00
288  2.8700000000000D+00  0.0000000000000D+00  0.0000000000000D+00
289  2.8800000000000D+00  0.0000000000000D+00  0.0000000000000D+00
290  2.8900000000000D+00  0.0000000000000D+00  0.0000000000000D+00
291  2.9000000000000D+00  0.0000000000000D+00  0.0000000000000D+00
292  2.9100000000000D+00  0.0000000000000D+00  0.0000000000000D+00
293  2.9200000000000D+00  0.0000000000000D+00  0.0000000000000D+00
294  2.9300000000000D+00  0.0000000000000D+00  0.0000000000000D+00
295  2.9400000000000D+00  0.0000000000000D+00  0.0000000000000D+00
296  2.9500000000000D+00  0.0000000000000D+00  0.0000000000000D+00
297  2.9600000000000D+00  0.0000000000000D+00  0.0000000000000D+00
298  2.9700000000000D+00  0.0000000000000D+00  0.0000000000000D+00
299  2.9800000000000D+00  0.0000000000000D+00  0.0000000000000D+00
300  2.9900000000000D+00  0.0000000000000D+00  0.0000000000000D+00
301  3.0000000000000D+00  0.0000000000000D+00  0.0000000000000D+00
302  3.0100000000000D+00  0.0000000000000D+00  0.0000000000000D+00
303  3.0200000000000D+00  0.0000000000000D+00  0.0000000000000D+00
304  3.0300000000000D+00  0.0000000000000D+00  0.0000000000000D+00
305  3.0400000000000D+00  0.0000000000000D+00  0.0000000000000D+00
306  3.0500000000000D+00  0.0000000000000D+00  0.0000000000000D+00
307  3.0600000000000D+00  0.0000000000000D+00  0.0000000000000D+00
308  3.0700000000000D+00  0.0000000000000D+00  0.0000000000000D+00
309  3.0800000000000D+00  0.0000000000000D+00  0.0000000000000D+00
310  3.0900000000000D+00  0.0000000000000D+00  0.0000000000000D+00
311  3.1000000000000D+00  0.0000000000000D+00  0.0000000000000D+00
312  3.1100000000000D+00  0.0000000000000D+00  0.0000000000000D+00
313  3.1200000000000D+00  0.0000000000000D+00  0.0000000000000D+00
314  3.1300000000000D+00  0.0000000000000D+00  0.0000000000000D+00
315  3.1400000000000D+00  0.0000000000000D+00  0.0000000000000D+00
316  3.1500000000000D+00  0.0000000000000D+00  0.0000000000000D+00
317  3.1600000000000D+00  0.0000000000000D+00  0.0000000000000D+00
318  3.1700000000000D+00  0.0000000000000D+00  0.0000000000000D+00
319  3.1800000000000D+00  0.0000000000000D+00  0.0000000000000D+00
320  3.1900000000000D+00  0.0000000000000D+00  0.0000000000000D+00
321  3.2000000000000D+00  0.0000000000000D+00  0.0000000000000D+00
322  3.2100000000000D+00  0.0000000000000D+00  0.0000000000000D+00
323  3.2200000000000D+00  0.0000000000000D+00  0.0000000000000D+00
324  3.2300000000000D+00  0.0000000000000D+00  0.0000000000000D+00
325  3.2400000000000D+00  0.0000000000000D+00  0.0000000000000D+00
326  3.2500000000000D+00  0.0000000000000D+00  0.0000000000000D+00
327  3.2600000000000D+00  0.0000000000000D+00  0.0000000000000D+00
328  3.2700000000000D+00  0.0000000000000D+00  0.0000000000000D+00
329  3.2800000000000D+00  0.0000000000000D+00  0.0000000000000D+00
330  3.2900000000000D+00  0.0000000000000D+00  0.0000000000000D+00
331  3.3000000000000D+00  0.0000000000000D+00  0.0000000000000D+00
332  3.3100000000000D+00  0.0000000000000D+00  0.0000000000000D+00
333  3.3200000000000D+00  0.0000000000000D+00  0.0000000000000D+00
334  3.3300000000000D+00  0.0000000000000D+00  0.0000000000000D+00
335  3.3400000000000D+00  0.0000000000000D+00  0.0000000000000D+00
336  3.3500000000000D+00  0.0000000000000D+00  0.0000000000000D+00
337  3.3600000000000D+00  0.0000000000000D+00  0.0000000000000D+00
338  3.3700000000000D+00  0.0000000000000D+00  0.0000000000000D+00
339  3.3800000000000D+00  0.0000000000000D+00  0.0000000000000D+00
340  3.3900000000000D+00  0.0000000000000D+00  0.0000000000000D+00
341  3.4000000000000D+00  0.0000000000000D+00  0.0000000000000D+00
342  3.4100000000000D+00  0.0000000000000D+00  0.0000000000000D+00
343  3.4200000000000D+00  0.0000000000000D+00  0.0000000000000D+00
344  3.4300000000000D+00  0.0000000000000D+00  0.0000000000000D+00
345  3.4400000000000D+00  0.0000000000000D+00  0.0000000000000D+00
346  3.4500000000000D+00  0.0000000000000D+00  0.0000000000000D+00
347  3.4600000000000D+00  0.0000000000000D+00  0.0000000000000D+00
348  3.4700000000000D+00  0.0000000000000D+00  0.0000000000000D+00
349  3.4800000000000D+00  0.0000000000000D+00  0.0000000000000D+00
350  3.4900000000000D+00  0.0000000000000D+00  0.0000000000000D+00
351  3.5000000000000D+00  0.0000000000000D+00  0.0000000000000D+00
352  3.5100000000000D+00  0.0000000000000D+00  0.0000000000000D+00
353  3.5200000000000D+00  0.0000000000000D+00  0.0000000000000D+00
354  3.5300000000000D+00  0.0000000000000D+00  0.0000000000000D+00
355  3.5400000000000D+00  0.0000000000000D+00  0.0000000000000D+00
356  3.5500000000000D+00  0.0000000000000D+00  0.0000000000000D+00
357  3.5600000000000D+00  0.0000000000000D+00  0.0000000000000D+00
358  3.5700000000000D+00  0.0000000000000D+00  0.0000000000000D+00
359  3.5800000000000D+00  0.0000000000000D+00  0.0000000000000D+00
360  3.5900000000000D+00  0.0000000000000D+00  0.0000000000000D+00
361  3.6000000000000D+00  0.0000000000000D+00  0.0000000000000D+00
362  3.6100000000000D+00  0.0000000000000D+00  0.0000000000000D+00
363  3.6200000000000D+00  0.0000000000000D+00  0.0000000000000D+00
364  3.6300000000000D+00  0.0000000000000D+00  0.0000000000000D+00
365  3.6400000000000D+00  0.0000000000000D+00  0.0000000000000D+00
366  3.6500000000000D+00  0.0000000000000D+00  0.0000000000000D+00
367  3.6600000000000D+00  0.0000000000000D+00  0.0000000000000D+00
368  3.6700000000000D+00  0.0000000000000D+00  0.0000000000000D+00
369  3.6800000000000D+00  0.0000000000000D+00  0.0000000000000D+00
370  3.6900000000000D+00  0.0000000000000D+00  0.0000000000000D+00
371  3.7000000000000D+00  0.0000000000000D+00  0.0000000000000D+00
372  3.7100000000000D+00  0.0000000000000D+00  0.0000000000000D+00
373  3.7200000000000D+00  0.0000000000000D+00  0.0000000000000D+00
374  3.7300000000000D+00  0.0000000000000D+00  0.0000000000000D+00
375  3.7400000000000D+00  0.0000000000000D+00  0.0000000000000D+00
376  3.7500000000000D+00  0.0000000000000D+00  0.0000000000000D+00
377  3.7600000000000D+00  0.0000000000000D+00  0.0000000000000D+00
378  3.7700000000000D+00  0.0000000000000D+00  0.0000000000000D+00
379  3.7800000000000D+00  0.0000000000000D+00  0.0000000000000D+00
380  3.7900000000000D+00  0.0000000000000D+00  0.0000000000000D+00
381  3.8000000000000D+00  0.0000000000000D+00  0.0000000000000D+00
382  3.8100000000000D+00  0.0000000000000D+00  0.0000000000000D+00
383  3.8200000000000D+00  0.0000000000000D+00  0.0000000000000D+00
384  3.8300000000000D+00  0.0000000000000D+00  0.0000000000000D+00
385  3.8400000000000D+00  0.0000000000000D+00  0.0000000000000D+00
386  3.8500000000000D+00  0.0000000000000D+00  0.0000000000000D+00
387  3.8600000000000D+00  0.0000000000000D+00  0.0000000000000D+00
388  3.8700000000000D+00  0.0000000000000D+00  0.0000000000000D+00
389  3.8800000000000D+00  0.0000000000000D+00  0.0000000000000D+00
390  3.8900000000000D+00  0.0000000000000D+00  0.0000000000000D+00
391  3.9000000000000D+00  0.0000000000000D+00  0.0000000000000D+00
392  3.9100000000000D+00  0.0000000000000D+00  0.0000000000000D+00
393  3.9200000000000D+00  0.0000000000000D+00  0.0000000000000D+00
394  3.9300000000000D+00  0.0000000000000D+00  0.0000000000000D+00
395  3.9400000000000D+00  0.0000000000000D+00  0.0000000000000D+00
396  3.9500000000000D+00  0.0000000000000D+00  0.0000000000000D+00
397  3.9600000000000D+00  0.0000000000000D+00  0.0000000000000D+00
398  3.9700000000000D+00  0.0000000000000D+00  0.0000000000000D+00
399  3.9800000000000D+00  0.0000000000000D+00  0.0000000000000D+00
400  3.9900000000000D+00  0.0000000000000D+00  0.0000000000000D+00
401  4.0000000000000D+00  0.0000000000000D+00  0.0000000000000D+00
402  4.0100000000000D+00  0.0000000000000D+00  0.0000000000000D+00
403  4.0200000000000D+00  0.0000000000000D+00  0.0000000000000D+00
404  4.0300000000000D+00  0.0000000000000D+00  0.0000000000000D+00
405  4.0400000000000D+00  0.0000000000000D+00  0.0000000000000D+00
406  4.0500000000000D+00  0.0000000000000D+00  0.0000000000000D+00
407  4.0600000000000D+00  0.0000000000000D+00  0.0000000000000D+00
408  4.0700000000000D+00  0.0000000000000D+00  0.0000000000000D+00
409  4.0800000000000D+00  0.0000000000000D+00  0.0000000000000D+00
410  4.0900000000000D+00  0.0000000000000D+00  0.0000000000000D+00
411  4.1000000000000D+00  0.0000000000000D+00  0.0000000000000D+00
412  4.1100000000000D+00  0.0000000000000D+00  0.0000000000000D+00
413  4.1200000000000D+00  0.0000000000000D+00  0.0000000000000D+00
414  4.1300000000000D+00  0.0000000000000D+00  0.0000000000000D+00
415  4.1400000000000D+00  0.0000000000000D+00  0.0000000000000D+00
416  4.1500000000000D+00  0.0000000000000D+00  0.0000000000000D+00
417  4.1600000000000D+00  0.0000000000000D+00  0.0000000000000D+00
418  4.1700000000000D+00  0.0000000000000D+00  0.0000000000000D+00
419  4.1800000000000D+00  0.0000000000000D+00  0.0000000000000D+00
420  4.1900000000000D+00  0.0000000000000D+00  0.0000000000000D+00
421  4.2000000000000D+00  0.0000000000000D+00  0.0000000000000D+00
422  4.2100000000000D+00  0.0000000000000D+00  0.0000000000000D+00
423  4.2200000000000D+00  0.0000000000000D+00  0.0000000000000D+00
424  4.2300000000000D+00  0.0000000000000D+00  0.0000000000000D+00
425  4.2400000000000D+00  0.0000000000000D+00  0.0000000000000D+00
426  4.2500000000000D+00  0.0000000000000D+00  0.0000000000000D+00
427  4.2600000000000D+00  0.0000000000000D+00  0.0000000000000D+00
428  4.2700000000000D+00  0.0000000000000D+00  0.0000000000000D+00
429  4.2800000000000D+00  0.0000000000000D+00  0.0000000000000D+00
430  4.2900000000000D+00  0.0000000000000D+00  0.0000000000000D+00
431  4.3000000000000D+00  0.0000000000000D+00  0.0000000000000D+00
432  4.3100000000000D+00  0.0000000000000D+00  0.0000000000000D+00
433  4.3200000000000D+00  0.0000000000000D+00  0.0000000000000D+00
434  4.3300000000000D+00  0.0000000000000D+00  0.0000000000000D+00
435  4.3400000000000D+00  0.0000000000000D+00  0.0000000000000D+00
436  4.3500000000000D+00  0.0000000000000D+00  0.0000000000000D+00
437  4.3600000000000D+00  0.0000000000000D+00  0.0000000000000D+00
438  4.3700000000000D+00  0.0000000000000D+00  0.0000000000000D+00
439  4.3800000000000D+00  0.0000000000000D+00  0.0000000000000D+00
440  4.3900000000000D+00  0.0000000000000D+00  0.0000000000000D+00
441  4.4000000000000D+00  0.0000000000000D+00  0.0000000000000D+00
442  4.4100000000000D+00  0.0000000000000D+00  0.0000000000000D+00
443  4.4200000000000D+00  0.0000000000000D+00  0.0000000000000D+00