<?xml version="1.0" encoding="UTF-8" ?>
<psml version="1.1" energy_unit="hartree" length_unit="bohr"
 uuid="3d713a40-521d-11e8-67ec-83e8effd604a"
 xmlns="http://esl.cecam.org/PSML/ns/1.1">
<provenance creator="ONCVPSP-3.3.0+psml-3.3.0-73 (fully-relativistic)"
 date="2018-05-07">
<annotation action="semilocal-pseudopotential-generation"
 action-cont="projectors-generation" />
<input-file name="oncvpsp-input">
<![CDATA[# atsym z nc nv iexc psfile
Bi 83 10 5 4 both
# n l f
1 0 2.0
2 0 2.0
2 1 6.0
3 0 2.0
3 1 6.0
3 2 10.0
4 0 2.0
4 1 6.0
4 2 10.0
4 3 14.0
5 0 2.0
5 1 6.0
5 2 10.0
6 0 2.0
6 1 3.0
# lmax
2
# l rc ep ncon nbas qcut
0 1.4 0.0 4 8 9.0
1 1.5 0.0 4 8 8.4
2 1.4 0.0 4 8 9.0
# lloc lpopt rc5 dvloc0
4 5 1.3 0.0
# l nproj debl
0 2 1.0
1 2 1.0
2 2 2.0
# icmod fcfact rcfact
3 6.0 1.34
# epsh1 epsh2 depsh
-12.0 12.0 0.02
# rlmax drl
6.0 0.01
 0
]]>
</input-file>
</provenance>
<pseudo-atom-spec atomic-label="Bi" atomic-number="83" z-pseudo="23"
 flavor="Hamann&apos;s oncvpsp" relativity="dirac" spin-dft="no"
 core-corrections="yes">
<annotation pseudo-energy="-217.688734551" />
<exchange-correlation>
<annotation oncvpsp-xc-code="4" oncvpsp-xc-type="GGA -- Perdew-Burke-Ernzerhof" />
<libxc-info number-of-functionals="2">
<functional name="Perdew, Burke &amp; Ernzerhof (GGA)" type="exchange" id="101" />
<functional name="Perdew, Burke &amp; Ernzerhof (GGA)" type="correlation"
 id="130" />
</libxc-info>
</exchange-correlation>
<valence-configuration total-valence-charge="23">
<shell n="5" l="s" occupation="2" />
<shell n="5" l="p" occupation="6" />
<shell n="5" l="d" occupation="10" />
<shell n="6" l="s" occupation="2" />
<shell n="6" l="p" occupation="3" />
</valence-configuration>
</pseudo-atom-spec>
<grid npts="457">
<annotation type="sampled from oncvpsp log grid"
 recipe="r(i:1..N) = r1*exp(a*(i-1)) + r=0; resampled"
 recipe-cont="r1: scale; a: step" scale="0.602409638554E-05"
 step="0.119285708653E-01" delta="0.500000000000E-02" rmax="44.0626872033" />
<grid-data>
  0.000000000000E+00  5.031540399417E-03  1.005010708672E-02  1.507676322460E-02
  2.031519180407E-02  2.548300647672E-02  3.084173950167E-02  3.601517482036E-02
  4.106493736582E-02  4.626752728992E-02  5.151110926994E-02  5.666892867097E-02
  6.234320173317E-02  6.777237261092E-02  7.280073515825E-02  7.820217642384E-02
  8.400437693564E-02  8.916706618068E-02  9.464704080075E-02  1.004638003250E-01
  1.066380426725E-01  1.118495432830E-01  1.173157347894E-01  1.230490641731E-01
  1.290625867116E-01  1.353699957055E-01  1.419856536601E-01  1.471587203454E-01
  1.525202611353E-01  1.580771428440E-01  1.638364824694E-01  1.698056563082E-01
  1.759923094030E-01  1.824043653339E-01  1.890500363665E-01  1.959378339698E-01
  2.030765797176E-01  2.104754165862E-01  2.155571350442E-01  2.207615465127E-01
  2.260916132918E-01  2.315503692031E-01  2.371409213171E-01  2.428664517214E-01
  2.487302193317E-01  2.547355617473E-01  2.608858971501E-01  2.671847262509E-01
  2.736356342815E-01  2.802422930356E-01  2.870084629587E-01  2.939379952883E-01
  3.010348342466E-01  3.083030192846E-01  3.157466873822E-01  3.233700754024E-01
  3.311775225029E-01  3.391734726062E-01  3.473624769288E-01  3.557491965718E-01
  3.643384051738E-01  3.731349916283E-01  3.821439628662E-01  3.913704467057E-01
  4.008196947709E-01  4.104970854815E-01  4.204081271133E-01  4.254530246387E-01
  4.305584609344E-01  4.357251624656E-01  4.409538644152E-01  4.462453107881E-01
  4.516002545176E-01  4.570194575718E-01  4.625036910627E-01  4.680537353554E-01
  4.736703801797E-01  4.793544247418E-01  4.851066778387E-01  4.909279579728E-01
  4.968190934685E-01  5.027809225901E-01  5.088142936612E-01  5.149200651851E-01
  5.210991059673E-01  5.273522952389E-01  5.336805227818E-01  5.400846890552E-01
  5.465657053239E-01  5.531244937877E-01  5.597619877132E-01  5.664791315658E-01
  5.732768811445E-01  5.801562037183E-01  5.871180781629E-01  5.941634951008E-01
  6.012934570421E-01  6.085089785266E-01  6.158110862689E-01  6.232008193041E-01
  6.306792291358E-01  6.382473798854E-01  6.459063484440E-01  6.536572246253E-01
  6.615011113208E-01  6.694391246567E-01  6.774723941526E-01  6.856020628824E-01
  6.938292876370E-01  7.021552390886E-01  7.105811019577E-01  7.191080751812E-01
  7.277373720834E-01  7.364702205484E-01  7.453078631950E-01  7.542515575533E-01
  7.633025762439E-01  7.724622071589E-01  7.817317536448E-01  7.911125346885E-01
  8.006058851048E-01  8.102131557260E-01  8.199357135947E-01  8.297749421579E-01
  8.397322414638E-01  8.498090283613E-01  8.600067367017E-01  8.703268175421E-01
  8.807707393526E-01  8.913399882248E-01  9.020360680835E-01  9.128605009005E-01
  9.238148269113E-01  9.349006048343E-01  9.461194120923E-01  9.574728450374E-01
  9.689625191778E-01  9.805900694080E-01  9.923571502409E-01  1.004265436044E+00
  1.016316621276E+00  1.028512420732E+00  1.040854569780E+00  1.053344824618E+00
  1.065984962513E+00  1.078776782063E+00  1.091722103448E+00  1.104822768689E+00
  1.118080641914E+00  1.131497609617E+00  1.145075580932E+00  1.158816487903E+00
  1.172722285758E+00  1.186794953187E+00  1.201036492625E+00  1.215448930537E+00
  1.230034317703E+00  1.244794729516E+00  1.259732266270E+00  1.274849053465E+00
  1.290147242107E+00  1.305629009012E+00  1.321296557120E+00  1.337152115806E+00
  1.353197941195E+00  1.369436316490E+00  1.385869552288E+00  1.402499986915E+00
  1.419329986758E+00  1.436361946599E+00  1.453598289958E+00  1.471041469438E+00
  1.488693967071E+00  1.506558294676E+00  1.524636994212E+00  1.542932638143E+00
  1.561447829800E+00  1.580185203758E+00  1.599147426203E+00  1.618337195317E+00
  1.637757241661E+00  1.657410328561E+00  1.677299252504E+00  1.697426843534E+00
  1.717795965656E+00  1.738409517244E+00  1.759270431451E+00  1.780381676629E+00
  1.801746256748E+00  1.823367211829E+00  1.845247618371E+00  1.867390589792E+00
  1.889799276869E+00  1.912476868191E+00  1.935426590610E+00  1.958651709697E+00
  1.982155530213E+00  2.005941396576E+00  2.030012693335E+00  2.054372845655E+00
  2.079025319803E+00  2.103973623640E+00  2.129221307124E+00  2.154771962810E+00
  2.180629226363E+00  2.206796777080E+00  2.233278338405E+00  2.260077678465E+00
  2.287198610607E+00  2.314644993934E+00  2.342420733862E+00  2.370529782668E+00
  2.398976140060E+00  2.427763853741E+00  2.456897019986E+00  2.486379784225E+00
  2.516216341636E+00  2.546410937736E+00  2.576967868988E+00  2.607891483416E+00
  2.639186181217E+00  2.670856415392E+00  2.702906692377E+00  2.735341572685E+00
  2.768165671557E+00  2.801383659616E+00  2.835000263531E+00  2.869020266694E+00
  2.903448509894E+00  2.938289892013E+00  2.973549370717E+00  3.009231963166E+00
  3.045342746724E+00  3.081886859684E+00  3.118869502001E+00  3.156295936025E+00
  3.194171487257E+00  3.232501545104E+00  3.271291563645E+00  3.310547062409E+00
  3.350273627158E+00  3.390476910684E+00  3.431162633612E+00  3.472336585215E+00
  3.514004624238E+00  3.556172679729E+00  3.598846751885E+00  3.642032912908E+00
  3.685737307863E+00  3.729966155557E+00  3.774725749424E+00  3.820022458417E+00
  3.865862727918E+00  3.912253080653E+00  3.959200117621E+00  4.006710519032E+00
  4.054791045261E+00  4.103448537804E+00  4.152689920258E+00  4.202522199301E+00
  4.252952465692E+00  4.303987895281E+00  4.355635750024E+00  4.407903379024E+00
  4.460798219573E+00  4.514327798207E+00  4.568499731786E+00  4.623321728567E+00
  4.678801589310E+00  4.734947208382E+00  4.791766574882E+00  4.849267773781E+00
  4.907458987066E+00  4.966348494911E+00  5.025944676850E+00  5.086256012972E+00
  5.147291085128E+00  5.209058578150E+00  5.271567281087E+00  5.334826088460E+00
  5.398844001522E+00  5.463630129540E+00  5.529193691095E+00  5.595544015388E+00
  5.662690543572E+00  5.730642830095E+00  5.799410544056E+00  5.869003470585E+00
  5.939431512232E+00  6.010704690379E+00  6.082833146664E+00  6.155827144423E+00
  6.229697070157E+00  6.304453434998E+00  6.380106876218E+00  6.456668158733E+00
  6.534148176638E+00  6.612557954757E+00  6.691908650215E+00  6.772211554017E+00
  6.853478092665E+00  6.935719829777E+00  7.018948467735E+00  7.103175849347E+00
  7.188413959540E+00  7.274674927054E+00  7.361971026179E+00  7.450314678493E+00
  7.539718454635E+00  7.630195076090E+00  7.721757417004E+00  7.814418506008E+00
  7.908191528080E+00  8.003089826417E+00  8.099126904334E+00  8.196316427186E+00
  8.294672224312E+00  8.394208291004E+00  8.494938790496E+00  8.596878055982E+00
  8.700040592653E+00  8.804441079765E+00  8.910094372722E+00  9.017015505195E+00
  9.125219691257E+00  9.234722327553E+00  9.345538995483E+00  9.457685463429E+00
  9.571177688990E+00  9.686031821258E+00  9.802264203113E+00  9.919891373550E+00
  1.003893007003E+01  1.015939723087E+01  1.028130999764E+01  1.040468571762E+01
  1.052954194623E+01  1.065589644958E+01  1.078376720698E+01  1.091317241346E+01
  1.104413048242E+01  1.117666004821E+01  1.131077996879E+01  1.144650932842E+01
  1.158386744036E+01  1.172287384964E+01  1.186354833584E+01  1.200591091587E+01
  1.214998184686E+01  1.229578162902E+01  1.244333100857E+01  1.259265098067E+01
  1.274376279244E+01  1.289668794595E+01  1.305144820130E+01  1.320806557971E+01
  1.336656236667E+01  1.352696111507E+01  1.368928464845E+01  1.385355606423E+01
  1.401979873700E+01  1.418803632185E+01  1.435829275771E+01  1.453059227080E+01
  1.470495937805E+01  1.488141889059E+01  1.505999591728E+01  1.524071586828E+01
  1.542360445870E+01  1.560868771221E+01  1.579599196475E+01  1.598554386833E+01
  1.617737039475E+01  1.637149883949E+01  1.656795682556E+01  1.676677230747E+01
  1.696797357516E+01  1.717158925806E+01  1.737764832916E+01  1.758618010911E+01
  1.779721427042E+01  1.801078084166E+01  1.822691021176E+01  1.844563313430E+01
  1.866698073191E+01  1.889098450070E+01  1.911767631470E+01  1.934708843048E+01
  1.957925349165E+01  1.981420453355E+01  2.005197498795E+01  2.029259868780E+01
  2.053610987206E+01  2.078254319052E+01  2.103193370881E+01  2.128431691331E+01
  2.153972871627E+01  2.179820546087E+01  2.205978392640E+01  2.232450133352E+01
  2.259239534952E+01  2.286350409371E+01  2.313786614284E+01  2.341552053655E+01
  2.369650678299E+01  2.398086486439E+01  2.426863524276E+01  2.455985886567E+01
  2.485457717206E+01  2.515283209812E+01  2.545466608330E+01  2.576012207630E+01
  2.606924354122E+01  2.638207446371E+01  2.669865935728E+01  2.701904326956E+01
  2.734327178880E+01  2.767139105026E+01  2.800344774287E+01  2.833948911578E+01
  2.867956298517E+01  2.902371774099E+01  2.937200235389E+01  2.972446638213E+01
  3.008115997872E+01  3.044213389846E+01  3.080743950524E+01  3.117712877931E+01
  3.155125432466E+01  3.192986937655E+01  3.231302780907E+01  3.270078414278E+01
  3.309319355250E+01  3.349031187513E+01  3.389219561763E+01  3.429890196504E+01
  3.471048878862E+01  3.512701465408E+01  3.554853882993E+01  3.597512129589E+01
  3.640682275144E+01  3.684370462446E+01  3.728582907995E+01  3.773325902891E+01
  3.818605813726E+01  3.864429083490E+01  3.910802232492E+01  3.957731859282E+01
  4.005224641594E+01  4.053287337293E+01  4.101926785340E+01  4.151149906764E+01
  4.200963705646E+01  4.251375270113E+01  4.302391773355E+01  4.354020474635E+01
  4.406268720331E+01
</grid-data>
</grid>
<valence-charge total-charge="23" is-unscreening-charge="yes"
 rescaled-to-z-pseudo="no">
<radfunc>
<data npts="457">
  5.548568506952E+00  5.552076158525E+00  5.562561742685E+00  5.580055479891E+00
  5.605724991148E+00  5.638478651874E+00  5.680223278859E+00  5.728025121114E+00
  5.781773868236E+00  5.844454146785E+00  5.915106216776E+00  5.991900563537E+00
  6.084710812485E+00  6.181640552995E+00  6.278468919842E+00  6.389997899337E+00
  6.518421973008E+00  6.640147776224E+00  6.776980749168E+00  6.930747818375E+00
  7.103482985966E+00  7.256839012978E+00  7.425046342542E+00  7.609482050583E+00
  7.811636772112E+00  8.033120607709E+00  8.275668378484E+00  8.472518665242E+00
  8.683097964846E+00  8.908283163936E+00  9.148992989795E+00  9.406187279188E+00
  9.680865562778E+00  9.974064814544E+00  1.028685619041E+01  1.062034055174E+01
  1.097564253748E+01  1.135390291365E+01  1.161939776373E+01  1.189594542419E+01
  1.218388205259E+01  1.248353871041E+01  1.279523891483E+01  1.311929586602E+01
  1.345600931940E+01  1.380566207099E+01  1.416851602259E+01  1.454480779246E+01
  1.493474383681E+01  1.533849504682E+01  1.575619078683E+01  1.618791234035E+01
  1.663368573293E+01  1.709347390437E+01  1.756716820745E+01  1.805457921718E+01
  1.855542684280E+01  1.906932974572E+01  1.959579407989E+01  2.013420158761E+01
  2.068379710341E+01  2.124367554212E+01  2.181276847481E+01  2.238983042808E+01
  2.297342507874E+01  2.356191155728E+01  2.415343111957E+01  2.444968474184E+01
  2.474589449713E+01  2.504176130210E+01  2.533697029148E+01  2.563119054300E+01
  2.592407483671E+01  2.621525945331E+01  2.650436401600E+01  2.679099138079E+01
  2.707472758036E+01  2.735514182686E+01  2.763178657917E+01  2.790419768033E+01
  2.817189457099E+01  2.843438058513E+01  2.869114333380E+01  2.894165518348E+01
  2.918537383501E+01  2.942174300934E+01  2.965019324629E+01  2.987014282215E+01
  3.008099879192E+01  3.028215816155E+01  3.047300919535E+01  3.065293286292E+01
  3.082130442984E+01  3.097749519513E+01  3.112087437820E+01  3.125081115670E+01
  3.136667685587E+01  3.146784728865E+01  3.155370524462E+01  3.162364312435E+01
  3.167706571409E+01  3.171339309412E+01  3.173206367224E+01  3.173253733175E+01
  3.171429868156E+01  3.167686039344E+01  3.161976660969E+01  3.154259640178E+01
  3.144496725857E+01  3.132653858010E+01  3.118701515100E+01  3.102615056500E+01
  3.084375057035E+01  3.063967630373E+01  3.041384737882E+01  3.016624479398E+01
  2.989691362280E+01  2.960596545018E+01  2.929358051662E+01  2.896000953349E+01
  2.860557513278E+01  2.823067291639E+01  2.783577207168E+01  2.742141552288E+01
  2.698821959112E+01  2.653687313989E+01  2.606813618729E+01  2.558283797174E+01
  2.508187446373E+01  2.456620532250E+01  2.403685030336E+01  2.349488512870E+01
  2.294143684286E+01  2.237767867871E+01  2.180482447107E+01  2.122412265925E+01
  2.063684992770E+01  2.004430453984E+01  1.944779942552E+01  1.884865508701E+01
  1.824819239157E+01  1.764772532105E+01  1.704855374952E+01  1.645195631984E+01
  1.585918348773E+01  1.527145079941E+01  1.468993246396E+01  1.411575527655E+01
  1.354999294226E+01  1.299366084326E+01  1.244771128463E+01  1.191302924705E+01
  1.139042866653E+01  1.088064925527E+01  1.038435387068E+01  9.902126435042E+00
  9.434470403310E+00  8.981807773962E+00  8.544478635484E+00  8.122741240374E+00
  7.716772598525E+00  7.326669582697E+00  6.952450540041E+00  6.594057405702E+00
  6.251358317735E+00  5.924150734292E+00  5.612165051190E+00  5.315068715380E+00
  5.032472397140E+00  4.763942921813E+00  4.509019690195E+00  4.267221032600E+00
  4.038047105740E+00  3.820985116274E+00  3.615514261203E+00  3.421113288392E+00
  3.237268871302E+00  3.063477391104E+00  2.899246636682E+00  2.744097125384E+00
  2.597563247330E+00  2.459194190920E+00  2.328554676719E+00  2.205225514117E+00
  2.088803996257E+00  1.978904148307E+00  1.875156843663E+00  1.777209802117E+00
  1.684727483397E+00  1.597390888822E+00  1.514897283041E+00  1.436959847155E+00
  1.363307273684E+00  1.293683313119E+00  1.227846281012E+00  1.165568533812E+00
  1.106635920918E+00  1.050847219708E+00  9.980135596026E-01  9.479578406153E-01
  9.005141511521E-01  8.555271893050E-01  8.128516912948E-01  7.723518702235E-01
  7.339008678202E-01  6.973802214263E-01  6.626793480655E-01  6.296950470759E-01
  5.983310224520E-01  5.684974257401E-01  5.401104200663E-01  5.130917656322E-01
  4.873684268064E-01  4.628722007503E-01  4.395393673583E-01  4.173103601550E-01
  3.961294576718E-01  3.759444947314E-01  3.567065929873E-01  3.383699099997E-01
  3.208914060847E-01  3.042306281318E-01  2.883495095762E-01  2.732121856272E-01
  2.587848230210E-01  2.450354633407E-01  2.319338791247E-01  2.194514419337E-01
  2.075610015778E-01  1.962367757275E-01  1.854542491600E-01  1.751900819234E-01
  1.654220257306E-01  1.561288479298E-01  1.472902624309E-01  1.388868670030E-01
  1.309000863916E-01  1.233121207382E-01  1.161058988218E-01  1.092650356709E-01
  1.027737941311E-01  9.661705000163E-02  9.078026038633E-02  8.524943493468E-02
  8.001110967215E-02  7.505232314949E-02  7.036059466357E-02  6.592390432544E-02
  6.173067477375E-02  5.776975435102E-02  5.403040157938E-02  5.050227078893E-02
  4.717539876773E-02  4.404019231539E-02  4.108741659995E-02  3.830818421487E-02
  3.569394486342E-02  3.323647559005E-02  3.092787149288E-02  2.876053685729E-02
  2.672717665651E-02  2.482078837031E-02  2.303465407802E-02  2.136233278607E-02
  1.979765295447E-02  1.833470519033E-02  1.696783508017E-02  1.569163613598E-02
  1.450094283368E-02  1.339082372564E-02  1.235657461213E-02  1.139371176000E-02
  1.049796515939E-02  9.665271812782E-03  8.891769052824E-03  8.173787888519E-03
  7.507846381204E-03  6.890643054182E-03  6.319050341554E-03  5.790108083415E-03
  5.301017075849E-03  4.849132685146E-03  4.431958536418E-03  4.047140287195E-03
  3.692459496811E-03  3.365827602346E-03  3.065280011621E-03  2.788970323326E-03
  2.535164683735E-03  2.302236288715E-03  2.088660038882E-03  1.893007354781E-03
  1.713941157954E-03  1.550211022671E-03  1.400648502020E-03  1.264162630909E-03
  1.139735607466E-03  1.026418653248E-03  9.233280516481E-04  8.296413629244E-04
  7.445938134150E-04  6.674748556731E-04  5.976248955786E-04  5.344321818663E-04
  4.773298530217E-04  4.257931361009E-04  3.793366917495E-04  3.375120995091E-04
  2.999054774111E-04  2.661352298520E-04  2.358499178150E-04  2.087262456347E-04
  1.844671586875E-04  1.628000466139E-04  1.434750469259E-04  1.262634441249E-04
  1.109561597212E-04  9.736232882212E-05  8.530795921169E-05  7.463466909239E-05
  6.519849988579E-05  5.686880069343E-05  4.952718120225E-05  4.306652997915E-05
  3.739009523741E-05  3.241062527652E-05  2.804956589752E-05  2.423631218111E-05
  2.090751208865E-05  1.800641940873E-05  1.548229362683E-05  1.328984434623E-05
  1.138871793531E-05  9.743024122688E-06  8.320900308805E-06  7.094111411131E-06
  6.037683111750E-06  5.129566431070E-06  4.350331610137E-06  3.682889346676E-06
  3.112237496542E-06  2.625231422372E-06  2.210376244629E-06  1.857639326373E-06
  1.558281401436E-06  1.304704835676E-06  1.090317591967E-06  9.094115509436E-07
  7.570539207180E-07  6.289905491550E-07  5.215600314162E-07  4.316175828107E-07
  3.564677221365E-07  2.938048832931E-07  2.416611426962E-07  1.983603166760E-07
  1.624777464170E-07  1.328051479593E-07  1.083199612498E-07  8.815868516581E-08
  7.159373484251E-08  5.801340355265E-08  4.690455388834E-08  3.783770217325E-08
  3.045419601125E-08  2.445521779060E-08  1.959237695116E-08  1.565968107077E-08
  1.248670046528E-08  9.932763208384E-09  7.882037474907E-09  6.239375957753E-09
  4.926813090588E-09  3.880619996790E-09  3.048834673852E-09  2.389196046887E-09
  1.867420324780E-09  1.455766697993E-09  1.131846949776E-09  8.776401253548E-10
  6.786791208973E-10  5.233810115109E-10  4.024972226697E-10  3.086633419122E-10
  2.360315394555E-10  1.799712823939E-10  1.368263456298E-10  1.037180955773E-10
  7.838669623137E-11  5.906330233350E-11  4.436749719721E-11  3.322523500818E-11
  2.480338683037E-11  1.845769032883E-11  1.369148635975E-11  1.012310924539E-11
  7.460197395807E-12  5.479520393667E-12  4.011189208704E-12  2.926337639378E-12
  2.127543693345E-12  1.541406435415E-12  1.112812763635E-12  8.005245812144E-13
  5.737940603649E-13  4.097765958779E-13  2.915604849428E-13  2.066717112881E-13
  1.459434036206E-13  1.026641771137E-13  7.193895621899E-14  5.021107790522E-14
  3.490634583128E-14  2.416894128996E-14  1.666625323493E-14  1.144521333561E-14
  7.826968225422E-15  5.329972235329E-15  3.614062761471E-15  2.439962793199E-15
  1.640078442120E-15  1.097531005633E-15  7.311665597977E-16  4.848858277584E-16
  3.200827935633E-16  2.103103120574E-16  1.375338657204E-16  8.951271334953E-17
  5.797765270641E-17  3.736903657966E-17  2.396695109241E-17  1.529456335367E-17
  9.710877982213E-18  6.132074585216E-18  3.853505667213E-18  2.408906450752E-18
  1.497861314523E-18  9.263668928467E-19  5.698044329346E-19  3.485549023612E-19
  2.120263539998E-19  1.282483780148E-19  7.713058667243E-20  4.611927064663E-20
  2.741485419189E-20  0.000000000000E+00  0.000000000000E+00  0.000000000000E+00
  0.000000000000E+00  0.000000000000E+00  0.000000000000E+00  0.000000000000E+00
  0.000000000000E+00  0.000000000000E+00  0.000000000000E+00  0.000000000000E+00
  0.000000000000E+00
</data>
</radfunc>
</valence-charge>
<pseudocore-charge matching-radius="0.702155239089"
 number-of-continuous-derivatives="4">
<annotation model-charge-form="Teter function with specified parameters" />
<radfunc>
<data npts="290">
  1.888551434833E+02  1.888380806527E+02  1.887870766414E+02  1.887019928510E+02
  1.885771658281E+02  1.884179258834E+02  1.882150328210E+02  1.879827799809E+02
  1.877217350052E+02  1.874174469332E+02  1.870746321654E+02  1.867022204839E+02
  1.862524241697E+02  1.857829911176E+02  1.853143794778E+02  1.847750264462E+02
  1.841544965000E+02  1.835668446929E+02  1.829068459286E+02  1.821658927706E+02
  1.813344341135E+02  1.805970325054E+02  1.797890381940E+02  1.789040492956E+02
  1.779351580260E+02  1.768749268205E+02  1.757153671694E+02  1.747753874699E+02
  1.737709105656E+02  1.726979275809E+02  1.715522445557E+02  1.703294843537E+02
  1.690250907431E+02  1.676343350421E+02  1.661523257623E+02  1.645740217382E+02
  1.628942492758E+02  1.611077239074E+02  1.598547513376E+02  1.585503435147E+02
  1.571928906268E+02  1.557807834192E+02  1.543124195445E+02  1.527862106334E+02
  1.512005901322E+02  1.495540219550E+02  1.478450099955E+02  1.460721085435E+02
  1.442339336480E+02  1.423291754662E+02  1.403566116315E+02  1.383151216695E+02
  1.362037024833E+02  1.340214849186E+02  1.317677514093E+02  1.294419546927E+02
  1.270437375625E+02  1.245729536160E+02  1.220296889261E+02  1.194142845465E+02
  1.167273597312E+02  1.139698357182E+02  1.111429598941E+02  1.082483301184E+02
  1.052879189442E+02  1.022640974324E+02  9.917965820240E+01  9.761570032412E+01
  9.603783732036E+01  9.444654631509E+01  9.284233456975E+01  9.122573999210E+01
  8.959733159872E+01  8.795770992631E+01  8.630750738657E+01  8.464738855968E+01
  8.297805042077E+01  8.130022249405E+01  7.961466692869E+01  7.792217849084E+01
  7.622358446581E+01  7.451974446442E+01  7.281155012758E+01  7.109992472294E+01
  6.938582262771E+01  6.767022869164E+01  6.595415747430E+01  6.423865235091E+01
  6.252478448127E+01  6.081365163646E+01  5.910637687831E+01  5.740410708711E+01
  5.570801133331E+01  5.401927908957E+01  5.233911828008E+01  5.066875316460E+01
  4.900942205567E+01  4.736237486784E+01  4.572887049918E+01  4.411017404574E+01
  4.250755385126E+01  4.092227839511E+01  3.935561302298E+01  3.780881652605E+01
  3.628313757580E+01  3.477981102299E+01  3.330005407123E+01  3.184506233665E+01
  3.041600580735E+01  2.901402471782E+01  2.764022535517E+01  2.629567581602E+01
  2.498140173445E+01  2.369838200349E+01  2.244754451390E+01  2.122976193615E+01
  2.004584757284E+01  1.889655131034E+01  1.778255569980E+01  1.670447219904E+01
  1.566283760756E+01  1.465811072794E+01  1.369066928741E+01  1.276080715349E+01
  1.186873187770E+01  1.101456260079E+01  1.019832835225E+01  9.419966775531E+00
  8.679323308841E+00  7.976150849259E+00  7.310109925223E+00  6.680769399463E+00
  6.087607720800E+00  5.530014739131E+00  5.007294093338E+00  4.518666176791E+00
  4.063271679558E+00  3.640175700533E+00  3.248372416335E+00  2.886790287254E+00
  2.554297773619E+00  2.249709528999E+00  1.971793029537E+00  1.719275591744E+00
  1.490851724199E+00  1.285190752084E+00  1.100944647372E+00  9.367559919223E-01
  7.912659959703E-01  6.631224905314E-01  5.509878093117E-01  4.535464739452E-01
  3.695125958677E-01  2.976369090135E-01  2.367133498806E-01  1.855851054052E-01
  1.431500545635E-01  1.083655366821E-01  8.025238804896E-02  5.789819850800E-02
  4.045975116598E-02  2.716462098841E-02  1.731192169403E-02  1.027220473080E-02
  5.486528934164E-03  2.464734401602E-03  7.829688069977E-04  8.052844100400E-05
  5.608930631902E-05  4.634152244779E-04  1.106639742537E-03  1.835226309703E-03
  2.538716414089E-03  3.141377874458E-03  3.596865089445E-03  3.882999661442E-03
  3.996773435239E-03  3.949666729391E-03  3.763362608220E-03  3.465923772383E-03
  3.088482470314E-03  2.662476282307E-03  2.217444314868E-03  1.779379936369E-03
  1.369618390310E-03  1.004221146913E-03  6.938043735843E-04  4.437470301932E-04
  2.547053349334E-04  1.233550757475E-04  4.328167417016E-05  5.940073285545E-06
  1.612255124435E-06  2.029913545581E-05  5.249519157005E-05  8.980774717413E-05
  1.253975402102E-04  1.542321306797E-04  1.731579434604E-04  1.808094052839E-04
  1.773839508588E-04  1.643190310904E-04  1.439112626204E-04  1.189183708766E-04
  9.218172718796E-05  6.630145983052E-05  4.338796458510E-05  2.490397822909E-05
  1.160115440998E-05  3.545277140990E-06  2.157871767033E-07  6.589566601828E-07
  3.670374456352E-06  7.981656154538E-06  1.242840616906E-05  1.608105507729E-05
  1.832661685793E-05  1.889679940666E-05  1.784529922831E-05  1.548357838391E-05
  1.228915977601E-05  8.802934119350E-06  5.531921157051E-06  2.871499851763E-06
  1.056790026125E-06  1.473772564518E-07  0.000000000000E+00  0.000000000000E+00
  0.000000000000E+00  0.000000000000E+00  0.000000000000E+00  0.000000000000E+00
  0.000000000000E+00  0.000000000000E+00  0.000000000000E+00  0.000000000000E+00
  0.000000000000E+00  0.000000000000E+00  0.000000000000E+00  0.000000000000E+00
  0.000000000000E+00  0.000000000000E+00  0.000000000000E+00  0.000000000000E+00
  0.000000000000E+00  0.000000000000E+00  0.000000000000E+00  0.000000000000E+00
  0.000000000000E+00  0.000000000000E+00  0.000000000000E+00  0.000000000000E+00
  0.000000000000E+00  0.000000000000E+00  0.000000000000E+00  0.000000000000E+00
  0.000000000000E+00  0.000000000000E+00  0.000000000000E+00  0.000000000000E+00
  0.000000000000E+00  0.000000000000E+00  0.000000000000E+00  0.000000000000E+00
  0.000000000000E+00  0.000000000000E+00  0.000000000000E+00  0.000000000000E+00
  0.000000000000E+00  0.000000000000E+00  0.000000000000E+00  0.000000000000E+00
  0.000000000000E+00  0.000000000000E+00  0.000000000000E+00  0.000000000000E+00
  0.000000000000E+00  0.000000000000E+00  0.000000000000E+00  0.000000000000E+00
  0.000000000000E+00  0.000000000000E+00  0.000000000000E+00  0.000000000000E+00
  0.000000000000E+00  0.000000000000E+00  0.000000000000E+00  0.000000000000E+00
  0.000000000000E+00  0.000000000000E+00
</data>
</radfunc>
</pseudocore-charge>
<semilocal-potentials set="scalar_relativistic">
<slps n="5" l="s" rc="1.40249998692">
<radfunc>
<data npts="290">
 -1.923847045318E+01 -1.924029272141E+01 -1.924573832040E+01 -1.925481759107E+01
 -1.926812664240E+01 -1.928508546877E+01 -1.930666194248E+01 -1.933131761742E+01
 -1.935897511393E+01 -1.939114127035E+01 -1.942728631277E+01 -1.946643972702E+01
 -1.951357372437E+01 -1.956258505035E+01 -1.961132763846E+01 -1.966720311851E+01
 -1.973119156178E+01 -1.979149848727E+01 -1.985889415015E+01 -1.993413573418E+01
 -2.001804153807E+01 -2.009199313038E+01 -2.017252850639E+01 -2.026014760556E+01
 -2.035537101052E+01 -2.045873703473E+01 -2.057079781022E+01 -2.066088656843E+01
 -2.075641939662E+01 -2.085763307398E+01 -2.096476121011E+01 -2.107803181175E+01
 -2.119766451280E+01 -2.132386744722E+01 -2.145683374753E+01 -2.159673765475E+01
 -2.174373023026E+01 -2.189793466571E+01 -2.200479028981E+01 -2.211490955939E+01
 -2.222830160681E+01 -2.234496642165E+01 -2.246489402754E+01 -2.258806363204E+01
 -2.271444275243E+01 -2.284398632030E+01 -2.297663576869E+01 -2.311231810562E+01
 -2.325094497818E+01 -2.339241173201E+01 -2.353659647102E+01 -2.368335912252E+01
 -2.383254051342E+01 -2.398396146282E+01 -2.413742189711E+01 -2.429269999301E+01
 -2.444955135469E+01 -2.460770823046E+01 -2.476687877486E+01 -2.492674636148E+01
 -2.508696895193E+01 -2.524717852595E+01 -2.540698057764E+01 -2.556595368244E+01
 -2.572364913952E+01 -2.587959069405E+01 -2.603327434405E+01 -2.610910433962E+01
 -2.618416823643E+01 -2.625839519956E+01 -2.633171265765E+01 -2.640404630814E+01
 -2.647532012436E+01 -2.654545636422E+01 -2.661437558086E+01 -2.668199663521E+01
 -2.674823671049E+01 -2.681301132881E+01 -2.687623436994E+01 -2.693781809232E+01
 -2.699767315644E+01 -2.705570865068E+01 -2.711183211975E+01 -2.716594959585E+01
 -2.721796563265E+01 -2.726778334231E+01 -2.731530443559E+01 -2.736042926531E+01
 -2.740305687325E+01 -2.744308504068E+01 -2.748041034278E+01 -2.751492820695E+01
 -2.754653297545E+01 -2.757511797235E+01 -2.760057557507E+01 -2.762279729077E+01
 -2.764167383769E+01 -2.765709523171E+01 -2.766895087829E+01 -2.767712967000E+01
 -2.768152008988E+01 -2.768201032070E+01 -2.767848836042E+01 -2.767084214400E+01
 -2.765895967162E+01 -2.764272914364E+01 -2.762203910230E+01 -2.759677858036E+01
 -2.756683725691E+01 -2.753210562031E+01 -2.749247513858E+01 -2.744783843726E+01
 -2.739808948506E+01 -2.734312378732E+01 -2.728283858768E+01 -2.721713307816E+01
 -2.714590861802E+01 -2.706906896183E+01 -2.698652049729E+01 -2.689817249350E+01
 -2.680393736046E+01 -2.670373092081E+01 -2.659747269510E+01 -2.648508620192E+01
 -2.636649927490E+01 -2.624164439851E+01 -2.611045906528E+01 -2.597288615743E+01
 -2.582887435642E+01 -2.567837858455E+01 -2.552136048343E+01 -2.535778893490E+01
 -2.518764063101E+01 -2.501090070061E+01 -2.482756340120E+01 -2.463763288659E+01
 -2.444112406179E+01 -2.423806353926E+01 -2.402849071231E+01 -2.381245896433E+01
 -2.359003703549E+01 -2.336131057225E+01 -2.312638388906E+01 -2.288538197643E+01
 -2.263845279532E+01 -2.238576990382E+01 -2.212753546944E+01 -2.186398372798E+01
 -2.159538495861E+01 -2.132205005352E+01 -2.104433576988E+01 -2.076265076005E+01