<?xml version="1.0" encoding="UTF-8" ?>
<psml version="1.1" energy_unit="hartree" length_unit="bohr"
 uuid="6edb3930-471b-11e8-68e9-92e6ff7f6cc5"
 xmlns="http://esl.cecam.org/PSML/ns/1.1">
<provenance creator="ONCVPSP-3.3.0+psml-3.3.0-73 (fully-relativistic)"
 date="2018-04-23">
<annotation action="semilocal-pseudopotential-generation"
 action-cont="projectors-generation" />
<input-file name="oncvpsp-input">
<![CDATA[# atsym z nc nv iexc psfile
Cl 17 3 2 4 both
# n l f
1 0 2.0
2 0 2.0
2 1 6.0
3 0 2.0
3 1 5.0
# lmax
2
# l rc ep ncon nbas qcut
0 1.55 0.0 4 9 6.8
1 1.35 0.0 4 8 8.0
2 1.75 0.1 4 9 6.8
# lloc lpopt rc5 dvloc0
4 5 1.3 0.0
# l nproj debl
0 2 2.0
1 2 2.0
2 2 1.5
# icmod fcfact rcfact
3 8.0 1.23
# epsh1 epsh2 depsh
-15.0 12.0 0.02
# rlmax drl
6.0 0.01
 0
]]>
</input-file>
</provenance>
<pseudo-atom-spec atomic-label="Cl" atomic-number="17" z-pseudo="7"
 flavor="Hamann&apos;s oncvpsp" relativity="dirac" spin-dft="no"
 core-corrections="yes">
<annotation pseudo-energy="-14.9689544453" />
<exchange-correlation>
<annotation oncvpsp-xc-code="4" oncvpsp-xc-type="GGA -- Perdew-Burke-Ernzerhof" />
<libxc-info number-of-functionals="2">
<functional name="Perdew, Burke &amp; Ernzerhof (GGA)" type="exchange" id="101" />
<functional name="Perdew, Burke &amp; Ernzerhof (GGA)" type="correlation"
 id="130" />
</libxc-info>
</exchange-correlation>
<valence-configuration total-valence-charge="7">
<shell n="3" l="s" occupation="2" />
<shell n="3" l="p" occupation="5" />
</valence-configuration>
</pseudo-atom-spec>
<grid npts="457">
<annotation type="sampled from oncvpsp log grid"
 recipe="r(i:1..N) = r1*exp(a*(i-1)) + r=0; resampled"
 recipe-cont="r1: scale; a: step" scale="0.294117647059E-04"
 step="0.119285708653E-01" delta="0.500000000000E-02" rmax="44.0242521724" />
<grid-data>
  0.000000000000E+00  5.027151483922E-03  1.004134057245E-02  1.506361205528E-02
  2.029747125469E-02  2.546077814243E-02  3.081483684808E-02  3.598375947907E-02
  4.102911721421E-02  4.622716901962E-02  5.146617712438E-02  5.661949745917E-02
  6.228882096259E-02  6.771325607946E-02  7.273723248327E-02  7.813396217599E-02
  8.393110154036E-02  8.908928747130E-02  9.456448201537E-02  1.003761676926E-01
  1.065450243678E-01  1.117519790870E-01  1.172134025401E-01  1.229417308514E-01
  1.289500079103E-01  1.352519150732E-01  1.418618023172E-01  1.470303566364E-01
  1.523872206578E-01  1.579392552059E-01  1.636935710706E-01  1.696575381144E-01
  1.758387947112E-01  1.822452575295E-01  1.888851316716E-01  1.957669211822E-01
  2.028994399400E-01  2.102918229461E-01  2.153691087193E-01  2.205689804802E-01
  2.258943979449E-01  2.313483922889E-01  2.369340678723E-01  2.426546040070E-01
  2.485132567662E-01  2.545133608375E-01  2.606583314216E-01  2.669516661754E-01
  2.733969472036E-01  2.799978430969E-01  2.867581110206E-01  2.936815988531E-01
  3.007722473758E-01  3.080340925164E-01  3.154712676462E-01  3.230880059322E-01
  3.308886427474E-01  3.388776181379E-01  3.470594793502E-01  3.554388834197E-01
  3.640205998210E-01  3.728095131830E-01  3.818106260693E-01  3.910290618251E-01
  4.004700674939E-01  4.101390168034E-01  4.200414132251E-01  4.250819101838E-01
  4.301828931060E-01  4.353450878233E-01  4.405692288772E-01  4.458560596237E-01
  4.512063323392E-01  4.566208083273E-01  4.621002580272E-01  4.676454611235E-01
  4.732572066570E-01  4.789362931369E-01  4.846835286545E-01  4.904997309984E-01
  4.963857277704E-01  5.023423565036E-01  5.083704647817E-01  5.144709103590E-01
  5.206445612833E-01  5.268922960187E-01  5.332150035710E-01  5.396135836138E-01
  5.460889466172E-01  5.526420139766E-01  5.592737181443E-01  5.659850027620E-01
  5.727768227952E-01  5.796501446687E-01  5.866059464048E-01  5.936452177616E-01
  6.007689603747E-01  6.079781878992E-01  6.152739261540E-01  6.226572132679E-01
  6.301290998271E-01  6.376906490250E-01  6.453429368133E-01  6.530870520551E-01
  6.609240966797E-01  6.688551858399E-01  6.768814480700E-01  6.850040254468E-01
  6.932240737522E-01  7.015427626372E-01  7.099612757889E-01  7.184808110983E-01
  7.271025808315E-01  7.358278118015E-01  7.446577455431E-01  7.535936384896E-01
  7.626367621515E-01  7.717884032973E-01  7.810498641369E-01  7.904224625065E-01
  7.999075320566E-01  8.095064224413E-01  8.192204995106E-01  8.290511455047E-01
  8.389997592508E-01  8.490677563618E-01  8.592565694381E-01  8.695676482714E-01
  8.800024600506E-01  8.905624895712E-01  9.012492394461E-01  9.120642303194E-01
  9.230090010833E-01  9.340851090963E-01  9.452941304054E-01  9.566376599703E-01
  9.681173118899E-01  9.797347196326E-01  9.914915362682E-01  1.003389434703E+00
  1.015430107920E+00  1.027615269215E+00  1.039946652445E+00  1.052426012275E+00
  1.065055124422E+00  1.077835785915E+00  1.090769815346E+00  1.103859053130E+00
  1.117105361768E+00  1.130510626109E+00  1.144076753622E+00  1.157805674666E+00
  1.171699342762E+00  1.185759734875E+00  1.199988851694E+00  1.214388717914E+00
  1.228961382529E+00  1.243708919119E+00  1.258633426149E+00  1.273737027262E+00
  1.289021871590E+00  1.304490134049E+00  1.320144015657E+00  1.335985743845E+00
  1.352017572771E+00  1.368241783644E+00  1.384660685048E+00  1.401276613269E+00
  1.418091932628E+00  1.435109035820E+00  1.452330344249E+00  1.469758308380E+00
  1.487395408081E+00  1.505244152978E+00  1.523307082814E+00  1.541586767807E+00
  1.560085809021E+00  1.578806838729E+00  1.597752520794E+00  1.616925551044E+00
  1.636328657656E+00  1.655964601548E+00  1.675836176767E+00  1.695946210888E+00
  1.716297565418E+00  1.736893136203E+00  1.757735853838E+00  1.778828684084E+00
  1.800174628293E+00  1.821776723832E+00  1.843638044518E+00  1.865761701053E+00
  1.888150841465E+00  1.910808651563E+00  1.933738355382E+00  1.956943215646E+00
  1.980426534234E+00  2.004191652645E+00  2.028241952477E+00  2.052580855906E+00
  2.077211826177E+00  2.102138368091E+00  2.127364028508E+00  2.152892396850E+00
  2.178727105613E+00  2.204871830880E+00  2.231330292851E+00  2.258106256365E+00
  2.285203531441E+00  2.312625973818E+00  2.340377485504E+00  2.368462015330E+00
  2.396883559514E+00  2.425646162228E+00  2.454753916175E+00  2.484210963169E+00
  2.514021494727E+00  2.544189752664E+00  2.574720029696E+00  2.605616670052E+00
  2.636884070093E+00  2.668526678934E+00  2.700548999081E+00  2.732955587070E+00
  2.765751054115E+00  2.798940066765E+00  2.832527347566E+00  2.866517675736E+00
  2.900915887845E+00  2.935726878499E+00  2.970955601041E+00  3.006607068254E+00
  3.042686353073E+00  3.079198589310E+00  3.116148972382E+00  3.153542760050E+00
  3.191385273171E+00  3.229681896449E+00  3.268438079206E+00  3.307659336157E+00
  3.347351248191E+00  3.387519463169E+00  3.428169696727E+00  3.469307733088E+00
  3.510939425885E+00  3.553070698995E+00  3.595707547383E+00  3.638856037952E+00
  3.682522310407E+00  3.726712578132E+00  3.771433129070E+00  3.816690326619E+00
  3.862490610538E+00  3.908840497864E+00  3.955746583839E+00  4.003215542845E+00
  4.051254129359E+00  4.099869178911E+00  4.149067609058E+00  4.198856420367E+00
  4.249242697411E+00  4.300233609780E+00  4.351836413098E+00  4.404058450055E+00
  4.456907151455E+00  4.510390037273E+00  4.564514717720E+00  4.619288894333E+00
  4.674720361065E+00  4.730817005398E+00  4.787586809462E+00  4.845037851176E+00
  4.903178305390E+00  4.962016445055E+00  5.021560642395E+00  5.081819370104E+00
  5.142801202545E+00  5.204514816976E+00  5.266968994780E+00  5.330172622717E+00
  5.394134694190E+00  5.458864310520E+00  5.524370682246E+00  5.590663130433E+00
  5.657751087998E+00  5.725644101054E+00  5.794351830267E+00  5.863884052230E+00
  5.934250660857E+00  6.005461668787E+00  6.077527208813E+00  6.150457535318E+00
  6.224263025742E+00  6.298954182051E+00  6.374541632236E+00  6.451036131823E+00
  6.528448565404E+00  6.606789948189E+00  6.686071427568E+00  6.766304284698E+00
  6.847499936115E+00  6.929669935348E+00  7.012825974572E+00  7.096979886267E+00
  7.182143644902E+00  7.268329368641E+00  7.355549321065E+00  7.443815912918E+00
  7.533141703873E+00  7.623539404319E+00  7.715021877171E+00  7.807602139697E+00
  7.901293365373E+00  7.996108885758E+00  8.092062192387E+00  8.189166938696E+00
  8.287436941960E+00  8.386886185263E+00  8.487528819487E+00  8.589379165320E+00
  8.692451715304E+00  8.796761135888E+00  8.902322269519E+00  9.009150136753E+00
  9.117259938394E+00  9.226667057655E+00  9.337387062346E+00  9.449435707095E+00
  9.562828935580E+00  9.677582882807E+00  9.793713877400E+00  9.911238443929E+00
  1.003017330526E+01  1.015053538492E+01  1.027234180954E+01  1.039560991125E+01
  1.052035723019E+01  1.064660151695E+01  1.077436073515E+01  1.090365306398E+01
  1.103449690074E+01  1.116691086355E+01  1.130091379391E+01  1.143652475944E+01
  1.157376305655E+01  1.171264821323E+01  1.185319999179E+01  1.199543839169E+01
  1.213938365239E+01  1.228505625622E+01  1.243247693130E+01  1.258166665447E+01
  1.273264665433E+01  1.288543841418E+01  1.304006367515E+01  1.319654443925E+01
  1.335490297252E+01  1.351516180819E+01  1.367734374989E+01  1.384147187489E+01
  1.400756953739E+01  1.417566037184E+01  1.434576829630E+01  1.451791751585E+01
  1.469213252604E+01  1.486843811636E+01  1.504685937375E+01  1.522742168624E+01
  1.541015074647E+01  1.559507255543E+01  1.578221342610E+01  1.597159998721E+01
  1.616325918706E+01  1.635721829730E+01  1.655350491687E+01  1.675214697587E+01
  1.695317273958E+01  1.715661081246E+01  1.736249014220E+01  1.757084002391E+01
  1.778169010420E+01  1.799507038545E+01  1.821101123007E+01  1.842954336484E+01
  1.865069788521E+01  1.887450625984E+01  1.910100033495E+01  1.933021233897E+01
  1.956217488704E+01  1.979692098569E+01  2.003448403751E+01  2.027489784596E+01
  2.051819662012E+01  2.076441497956E+01  2.101358795931E+01  2.126575101482E+01
  2.152094002700E+01  2.177919130732E+01  2.204054160301E+01  2.230502810225E+01
  2.257268843948E+01  2.284356070075E+01  2.311768342916E+01  2.339509563031E+01
  2.367583677787E+01  2.395994681921E+01  2.424746618104E+01  2.453843577521E+01
  2.483289700451E+01  2.513089176857E+01  2.543246246979E+01  2.573765201943E+01
  2.604650384366E+01  2.635906188978E+01  2.667537063246E+01  2.699547508005E+01
  2.731942078101E+01  2.764725383038E+01  2.797902087635E+01  2.831476912686E+01
  2.865454635639E+01  2.899840091266E+01  2.934638172361E+01  2.969853830430E+01
  3.005492076395E+01  3.041557981312E+01  3.078056677087E+01  3.114993357213E+01
  3.152373277499E+01  3.190201756829E+01  3.228484177911E+01  3.267225988046E+01
  3.306432699902E+01  3.346109892301E+01  3.386263211009E+01  3.426898369541E+01
  3.468021149976E+01  3.509637403775E+01  3.551753052621E+01  3.594374089252E+01
  3.637506578323E+01  3.681156657263E+01  3.725330537150E+01  3.770034503596E+01
  3.815274917639E+01  3.861058216651E+01  3.907390915250E+01  3.954279606233E+01
  4.001730961508E+01  4.049751733046E+01  4.098348753843E+01  4.147528938889E+01
  4.197299286156E+01  4.247666877590E+01  4.298638880121E+01  4.350222546682E+01
  4.402425217242E+01
</grid-data>
</grid>
<valence-charge total-charge="7" is-unscreening-charge="yes"
 rescaled-to-z-pseudo="no">
<radfunc>
<data npts="457">
  5.493565414568E-02  5.506770647459E-02  5.546254443763E-02  5.612156794076E-02
  5.708924857305E-02  5.832512518152E-02  5.990210793632E-02  6.171046969266E-02
  6.374706949654E-02  6.612646716022E-02  6.881413598907E-02  7.174227536861E-02
  7.529059078558E-02  7.900752948839E-02  8.273196795494E-02  8.703600834647E-02
  9.201089117606E-02  9.674499093522E-02  1.020884504497E-01  1.081208961449E-01
  1.149326297356E-01  1.210115065136E-01  1.277131935574E-01  1.351027415363E-01
  1.432521895849E-01  1.522413364652E-01  1.621585951953E-01  1.702641609731E-01
  1.789918760334E-01  1.883905551716E-01  1.985129216333E-01  2.094159143598E-01
  2.211610149712E-01  2.338145943276E-01  2.474482780325E-01  2.621393296267E-01
  2.779710494346E-01  2.950331860304E-01  3.071389251657E-01  3.198647168700E-01
  3.332424665502E-01  3.473056293643E-01  3.620892628849E-01  3.776300773539E-01
  3.939664826293E-01  4.111386307768E-01  4.291884530995E-01  4.481596902138E-01
  4.680979135779E-01  4.890505366540E-01  5.110668136364E-01  5.341978233995E-01
  5.584964360223E-01  5.840172589095E-01  6.108165591749E-01  6.389521585563E-01
  6.684832967160E-01  6.994704583255E-01  7.319751588584E-01  7.660596835088E-01
  8.017867731285E-01  8.392192505376E-01  8.784195800182E-01  9.194493522656E-01
  9.623686865592E-01  1.007235541452E+00  1.054104924889E+00  1.078306728955E+00
  1.103027994389E+00  1.128274347061E+00  1.154051037811E+00  1.180362903413E+00
  1.207214325312E+00  1.234609186078E+00  1.262550823511E+00  1.291041982361E+00
  1.320084763585E+00  1.349680571142E+00  1.379830056268E+00  1.410533059221E+00
  1.441788548505E+00  1.473594557562E+00  1.505948118982E+00  1.538845196252E+00
  1.572280613137E+00  1.606247980767E+00  1.640739622547E+00  1.675746497055E+00
  1.711258119083E+00  1.747262479049E+00  1.783745961024E+00  1.820693259675E+00
  1.858087296448E+00  1.895909135384E+00  1.934137898992E+00  1.972750684670E+00
  2.011722482211E+00  2.051026092992E+00  2.090632051493E+00  2.130508549877E+00
  2.170621366379E+00  2.210933798367E+00  2.251406600948E+00  2.291997932068E+00
  2.332663305118E+00  2.373355550083E+00  2.414024784340E+00  2.454618394210E+00
  2.495081028434E+00  2.535354604734E+00  2.575378330616E+00  2.615088739589E+00
  2.654419743902E+00  2.693302704908E+00  2.731666522038E+00  2.769437741345E+00
  2.806540684410E+00  2.842897598322E+00  2.878428827260E+00  2.913053006038E+00
  2.946687275791E+00  2.979247521737E+00  3.010648632748E+00  3.040804782177E+00
  3.069629729165E+00  3.097037139355E+00  3.122940923686E+00  3.147255593674E+00
  3.169896631330E+00  3.190780871636E+00  3.209826895287E+00  3.226955429225E+00
  3.242089752370E+00  3.255156103846E+00  3.266084090965E+00  3.274807094255E+00
  3.281262666870E+00  3.285392925881E+00  3.287144933092E+00  3.286471063276E+00
  3.283329357995E+00  3.277683863450E+00  3.269504951104E+00  3.258769620150E+00
  3.245461781098E+00  3.229572520036E+00  3.211100343182E+00  3.190051401437E+00
  3.166439694521E+00  3.140287254056E+00  3.111624304587E+00  3.080489400998E+00
  3.046929540097E+00  3.011000243342E+00  2.972765606764E+00  2.932298313189E+00
  2.889679600904E+00  2.844999182020E+00  2.798355103075E+00  2.749853539936E+00
  2.699608518941E+00  2.647741556503E+00  2.594381210254E+00  2.539662536179E+00
  2.483726448263E+00  2.426718673933E+00  2.368787337473E+00  2.310079774579E+00
  2.250741287860E+00  2.190914785371E+00  2.130739754408E+00  2.070351522401E+00
  2.009880524804E+00  1.949451643788E+00  1.889183630275E+00  1.829188624863E+00
  1.769571791051E+00  1.710431199768E+00  1.651858367641E+00  1.593939168657E+00
  1.536753971348E+00  1.480377435448E+00  1.424878608996E+00  1.370320948018E+00
  1.316762374818E+00  1.264255355457E+00  1.212846996482E+00  1.162579159360E+00
  1.113488591028E+00  1.065607068985E+00  1.018961559336E+00  9.735743862275E-01
  9.294634111439E-01  8.866422205517E-01  8.451203204632E-01  8.049033364114E-01
  7.659932176877E-01  7.283884443636E-01  6.920842359777E-01  6.570727607275E-01
  6.233433440995E-01  5.908826759466E-01  5.596750151021E-01  5.297023906975E-01
  5.009447994307E-01  4.733803981103E-01  4.469856908770E-01  4.217357105829E-01
  3.976041938594E-01  3.745637495379E-01  3.525860200633E-01  3.316418356770E-01
  3.117013611777E-01  2.927342351270E-01  2.747097014218E-01  2.575967332039E-01
  2.413641491182E-01  2.259807219766E-01  2.114152799142E-01  1.976368001610E-01
  1.846144955764E-01  1.723178941206E-01  1.607169114534E-01  1.497819168715E-01
  1.394837928055E-01  1.297939881104E-01  1.206845653916E-01  1.121282426129E-01
  1.040984292381E-01  9.656925716169E-02  8.951560668232E-02  8.291312777583E-02
  7.673825692307E-02  7.096822974667E-02  6.558108970936E-02  6.055569312479E-02
  5.587171072910E-02  5.150962605909E-02  4.745073087971E-02  4.367711790013E-02
  4.017167101373E-02  3.691805329304E-02  3.390069296550E-02  3.110476759039E-02
  2.851618665082E-02  2.612157276802E-02  2.390824173711E-02  2.186418157553E-02
  1.997803076636E-02  1.823905586906E-02  1.663712866054E-02  1.516270295884E-02
  1.380679127113E-02  1.256094139689E-02  1.141721310604E-02  1.036815500086E-02
  9.406781659386E-03  8.526551147607E-03  7.721342976677E-03  6.985436571670E-03
  6.313490308263E-03  5.700521164505E-03  5.141885025940E-03  4.633257674033E-03
  4.170616480136E-03  3.750222820094E-03  3.368605218125E-03  3.022543222717E-03
  2.709052012095E-03  2.425367722233E-03  2.168933486405E-03  1.937386171917E-03
  1.728543796890E-03  1.540393607686E-03  1.371080795851E-03  1.218897832140E-03
  1.082274394317E-03  9.597678649038E-04  8.500543748658E-04  7.519203692581E-04
  6.642546711680E-04  5.860410207298E-04  5.163510665862E-04  4.543377878581E-04
  3.992293254415E-04  3.503232022385E-04  3.069809127419E-04  2.686228631943E-04
  2.347236443341E-04  2.048076194999E-04  1.784448115988E-04  1.552470731324E-04
  1.348645241352E-04  1.169822434936E-04  1.013171997038E-04  8.761540767380E-05
  7.564929870293E-05  6.521529126987E-05  5.613155074093E-05  4.823592657175E-05
  4.138405602527E-05  3.544762386642E-05  3.031276792447E-05  2.587862083663E-05
  2.205597870542E-05  1.876608781577E-05  1.593954096820E-05  1.351527539085E-05
  1.143966459524E-05  9.665696938450E-06  8.152234046935E-06  6.863342643176E-06
  5.767693695502E-06  4.838023182218E-06  4.050649122753E-06  3.385039879971E-06
  2.823429078078E-06  2.350472808894E-06  1.952945114947E-06  1.619468040220E-06
  1.340272827965E-06  1.106989119481E-06  9.124592677867E-07  7.505751256800E-07
  6.161348987233E-07  5.047178703217E-07  4.125750084829E-07  3.365336523646E-07
  2.739146516765E-07  2.224604938611E-07  1.802731032151E-07  1.457601332763E-07
  1.175886994527E-07  9.464561362752E-08  7.600328693073E-08  6.089056167377E-08
  4.866781920659E-08  3.880578780968E-08  3.086754428507E-08  2.449326525586E-08
  1.938733990227E-08  1.530750550499E-08  1.205571126536E-08  9.470454925337E-09
  7.420371193627E-09  5.798881339118E-09  4.519739954569E-09  3.513338204651E-09
  2.723643208827E-09  2.105670896759E-09  1.623405010611E-09  1.248088186734E-09
  9.568224755582E-10  7.314264760038E-10  5.575046700216E-10  4.236917236139E-10
  3.210406334253E-10  2.425287852467E-10  1.826603788592E-10  1.371473739437E-10
  1.026542221468E-10  7.659425650902E-11  5.696778599813E-11  4.223375476344E-11
  3.120832905557E-11  2.298501797535E-11  1.687195888469E-11  1.234284001247E-11
  8.998621840981E-12  6.537781012148E-12  4.733257530962E-12  3.414656322586E-12
  2.454553130658E-12  1.757995215082E-12  1.254480054675E-12  8.918491928643E-13
  6.316568478053E-13  4.456700054977E-13  3.132333984713E-13  2.192931054406E-13
  1.529197935819E-13  1.062095424924E-13  7.346889825501E-14  5.061304391173E-14
  3.472312886795E-14  2.372198197883E-14  1.613751757209E-14  1.093085157020E-14
  7.371911505633E-15  4.949851931121E-15  3.308773979754E-15  2.201817329533E-15
  1.458514957961E-15  9.616823126905E-16  6.311298957040E-16  4.122369518621E-16
  2.679723763482E-16  1.733488943907E-16  1.115863957649E-16  0.000000000000E+00
  0.000000000000E+00  0.000000000000E+00  0.000000000000E+00  0.000000000000E+00
  0.000000000000E+00  0.000000000000E+00  0.000000000000E+00  0.000000000000E+00
  0.000000000000E+00  0.000000000000E+00  0.000000000000E+00  0.000000000000E+00
  0.000000000000E+00  0.000000000000E+00  0.000000000000E+00  0.000000000000E+00
  0.000000000000E+00  0.000000000000E+00  0.000000000000E+00  0.000000000000E+00
  0.000000000000E+00  0.000000000000E+00  0.000000000000E+00  0.000000000000E+00
  0.000000000000E+00  0.000000000000E+00  0.000000000000E+00  0.000000000000E+00
  0.000000000000E+00  0.000000000000E+00  0.000000000000E+00  0.000000000000E+00
  0.000000000000E+00  0.000000000000E+00  0.000000000000E+00  0.000000000000E+00
  0.000000000000E+00  0.000000000000E+00  0.000000000000E+00  0.000000000000E+00
  0.000000000000E+00  0.000000000000E+00  0.000000000000E+00  0.000000000000E+00
  0.000000000000E+00  0.000000000000E+00  0.000000000000E+00  0.000000000000E+00
  0.000000000000E+00  0.000000000000E+00  0.000000000000E+00  0.000000000000E+00
  0.000000000000E+00  0.000000000000E+00  0.000000000000E+00  0.000000000000E+00
  0.000000000000E+00
</data>
</radfunc>
</valence-charge>
<pseudocore-charge matching-radius="0.819220499511"
 number-of-continuous-derivatives="4">
<annotation model-charge-form="Teter function with specified parameters" />
<radfunc>
<data npts="290">
  2.591080844152E+01  2.590877087566E+01  2.590268007464E+01  2.589251908730E+01
  2.587761082522E+01  2.585859084172E+01  2.583435400229E+01  2.580660606043E+01
  2.577541326696E+01  2.573904661932E+01  2.569806690650E+01  2.565353887382E+01
  2.559974383045E+01  2.554358342808E+01  2.548750409960E+01  2.542293772994E+01
  2.534862527016E+01  2.527822212161E+01  2.519911883429E+01  2.511027150602E+01
  2.501051936983E+01  2.492200494689E+01  2.482496639694E+01  2.471862004353E+01
  2.460211796803E+01  2.447454441926E+01  2.433491241302E+01  2.422163947431E+01
  2.410051219987E+01  2.397102967736E+01  2.383266576978E+01  2.368486892982E+01
  2.352706222485E+01  2.335864361538E+01  2.317898653455E+01  2.298744082283E+01
  2.278333407804E+01  2.256597348770E+01  2.241335280567E+01  2.225431144395E+01
  2.208863243711E+01  2.191609686470E+01  2.173648447061E+01  2.154957436319E+01
  2.135514580210E+01  2.115297907814E+01  2.094285649265E+01  2.072456344261E+01
  2.049788961812E+01  2.026263031839E+01  2.001858789237E+01  1.976557330980E+01
  1.950340786791E+01  1.923192503831E+01  1.895097245811E+01  1.866041406772E+01
  1.836013239704E+01  1.805003099985E+01  1.773003703444E+01  1.740010398645E+01
  1.706021452724E+01  1.671038349814E+01  1.635066100779E+01  1.598113562567E+01
  1.560193765113E+01  1.521324243200E+01  1.481527370213E+01  1.461289573610E+01
  1.440830690136E+01  1.420155024189E+01  1.399267243525E+01  1.378172388760E+01
  1.356875882575E+01  1.335383538565E+01  1.313701569680E+01  1.291836596202E+01
  1.269795653204E+01  1.247586197421E+01  1.225216113472E+01  1.202693719368E+01
  1.180027771237E+01  1.157227467187E+01  1.134302450241E+01  1.111262810263E+01
  1.088119084798E+01  1.064882258744E+01  1.041563762780E+01  1.018175470462E+01
  9.947296939094E+00  9.712391779941E+00  9.477170929541E+00  9.241770253478E+00
  9.006329672694E+00  8.770993037470E+00  8.535907982494E+00  8.301225762280E+00
  8.067101066275E+00  7.833691813037E+00  7.601158922909E+00  7.369666068710E+00
  7.139379404024E+00  6.910467268772E+00  6.683099871856E+00  6.457448950756E+00
  6.233687408112E+00  6.011988925450E+00  5.792527554349E+00  5.575477285522E+00
  5.361011596450E+00  5.149302978386E+00  4.940522443753E+00  4.734839015154E+00
  4.532419197424E+00  4.333426434403E+00  4.138020552304E+00  3.946357191811E+00
  3.758587231277E+00  3.574856203643E+00  3.395303709920E+00  3.220062832356E+00
  3.049259550605E+00  2.883012164480E+00  2.721430727067E+00  2.564616492190E+00
  2.412661380394E+00  2.265647467788E+00  2.123646502203E+00  1.986719451246E+00
  1.854916086885E+00  1.728274611227E+00  1.606821328139E+00  1.490570365298E+00
  1.379523451120E+00  1.273669750861E+00  1.172985765938E+00  1.077435300199E+00
  9.869694965303E-01  9.015269467364E-01  8.210338771171E-01  7.454044116080E-01
  6.745409136932E-01  6.083344075997E-01  5.466650785094E-01  4.894028507025E-01
  4.364080416699E-01  3.875320893170E-01  3.426183484375E-01  3.015029516703E-01
  2.640157291824E-01  2.299811803646E-01  1.992194898897E-01  1.715475795988E-01
  1.467801868509E-01  1.247309592343E-01  1.052135548922E-01  8.804273720251E-02
  7.303545217546E-02  6.001187671768E-02  4.879642587708E-02  3.921870733799E-02
  3.111441179725E-02  2.432612842539E-02  1.870407540828E-02  1.410673657185E-02
  1.040139631228E-02  7.464566472797E-03  5.182300410843E-03  3.450391260712E-03
  2.174453288851E-03  1.269887224798E-03  6.617324902470E-04  2.844112952223E-04
  8.137157415997E-05  4.637642816237E-06  1.427921527840E-05  7.781097492962E-05
  1.695361922831E-04  2.698488784569E-04  3.645096142550E-04  4.439104681639E-04
  5.023442891448E-04  5.372931210511E-04  5.487495375211E-04  5.385833566471E-04
  5.099644961469E-04  4.668507198672E-04  4.135467673365E-04  3.543389247339E-04
  2.932065736671E-04  2.336097367197E-04  1.783492228851E-04  1.294937583660E-04
  8.836656028718E-05  5.558225420342E-05  3.112391769316E-05  1.444939950835E-05
  4.615941605460E-06  4.125193305408E-07  4.901856578143E-07  3.482004592687E-06
  8.105807745377E-06  1.324490657135E-05  1.800392489174E-05  2.173895699691E-05
  2.406317968505E-05  2.483073319626E-05  2.410303340718E-05  2.210260711168E-05
  1.916000564146E-05  1.565933664763E-05  1.198748397135E-05  8.491221761229E-06
  5.445263842425E-06  3.032939858053E-06  1.339787476111E-06  3.590291927772E-07
  6.787021804371E-09  1.440801635342E-07  6.022179532990E-07  1.208170592983E-06
  1.806856735597E-06  2.277970421782E-06  2.545884197170E-06  2.582189065029E-06
  2.401432991659E-06  2.051471407067E-06  1.600441067607E-06  1.122644504080E-06
  6.855636123924E-07  3.398345777665E-07  1.133847681761E-07  1.016312083099E-08
  0.000000000000E+00  0.000000000000E+00  0.000000000000E+00  0.000000000000E+00
  0.000000000000E+00  0.000000000000E+00  0.000000000000E+00  0.000000000000E+00
  0.000000000000E+00  0.000000000000E+00  0.000000000000E+00  0.000000000000E+00
  0.000000000000E+00  0.000000000000E+00  0.000000000000E+00  0.000000000000E+00
  0.000000000000E+00  0.000000000000E+00  0.000000000000E+00  0.000000000000E+00
  0.000000000000E+00  0.000000000000E+00  0.000000000000E+00  0.000000000000E+00
  0.000000000000E+00  0.000000000000E+00  0.000000000000E+00  0.000000000000E+00
  0.000000000000E+00  0.000000000000E+00  0.000000000000E+00  0.000000000000E+00
  0.000000000000E+00  0.000000000000E+00  0.000000000000E+00  0.000000000000E+00
  0.000000000000E+00  0.000000000000E+00  0.000000000000E+00  0.000000000000E+00
  0.000000000000E+00  0.000000000000E+00  0.000000000000E+00  0.000000000000E+00
  0.000000000000E+00  0.000000000000E+00  0.000000000000E+00  0.000000000000E+00
  0.000000000000E+00  0.000000000000E+00  0.000000000000E+00  0.000000000000E+00
  0.000000000000E+00  0.000000000000E+00  0.000000000000E+00  0.000000000000E+00
  0.000000000000E+00  0.000000000000E+00
</data>
</radfunc>
</pseudocore-charge>
<semilocal-potentials set="scalar_relativistic">
<slps n="3" l="s" rc="1.56008580902">
<radfunc>
<data npts="290">
  2.952106568223E+01  2.950799394837E+01  2.946896340711E+01  2.940399778732E+01
  2.930901141593E+01  2.918839672553E+01  2.903561669325E+01  2.886195375663E+01
  2.866830592469E+01  2.844461607881E+01  2.819519300267E+01  2.792729475223E+01
  2.760789924556E+01  2.727932891054E+01  2.695608848408E+01  2.658980072403E+01
  2.617580841047E+01  2.579088433278E+01  2.536661649840E+01  2.490015557112E+01
  2.438871999370E+01  2.394540952902E+01  2.347037277050E+01  2.296248706306E+01
  2.242079170450E+01  2.184452559477E+01  2.123316642311E+01  2.075145896744E+01
  2.024988057131E+01  1.972855311212E+01  1.918771596389E+01  1.862773332047E+01
  1.804910039750E+01  1.745244825931E+01  1.683854702261E+01  1.620830720460E+01
  1.556277900893E+01  1.490314937947E+01  1.445620802413E+01  1.400400433022E+01
  1.354698306468E+01  1.308561069780E+01  1.262037370463E+01  1.215177667159E+01
  1.168034022047E+01  1.120659876506E+01  1.073109811845E+01  1.025439297187E+01
  9.777044268446E+00  9.299616497558E+00  8.822674937515E+00  8.346782876066E+00
  7.872498839578E+00  7.400373862771E+00  6.930948831562E+00  6.464751931871E+00
  6.002296237102E+00  5.544077466620E+00  5.090571946626E+00  4.642234803748E+00
  4.199498420017E+00  3.762771176098E+00  3.332436507334E+00  2.908852294534E+00
  2.492350608434E+00  2.083237823184E+00  1.681795110280E+00  1.484031214549E+00
  1.288279319664E+00  1.094567939958E+00  9.029242494838E-01  7.133741425287E-01
  5.259422998806E-01  3.406522605997E-01  1.575264991508E-01 -2.341349238180E-02
 -2.021471172782E-01 -3.786545826523E-01 -5.529168038194E-01 -7.249153049667E-01
 -8.946321165676E-01 -1.062049669992E+00 -1.227150690344E+00 -1.389918086916E+00
 -1.550334843958E+00 -1.708383910238E+00 -1.864048089990E+00 -2.017309934980E+00
 -2.168151639202E+00 -2.316554936798E+00 -2.462501004404E+00 -2.605970368834E+00
 -2.746942821268E+00 -2.885397338959E+00 -3.021312015636E+00 -3.154664001686E+00
 -3.285429455247E+00 -3.413583505313E+00 -3.539100227858E+00 -3.661952636042E+00
 -3.782112685386E+00 -3.899551294732E+00 -4.014238383782E+00 -4.126142927752E+00
 -4.235233029670E+00 -4.341476010612E+00 -4.444838518109E+00 -4.545286652795E+00
 -4.642786113211E+00 -4.737302358730E+00 -4.828800790368E+00 -4.917246949419E+00
 -5.002606733802E+00 -5.084846632269E+00 -5.163933976782E+00 -5.239837213634E+00
 -5.312526194264E+00 -5.381972486929E+00 -5.448149710672E+00 -5.511033893029E+00
 -5.570603852719E+00 -5.626841607889E+00 -5.679732809256E+00 -5.729267195631E+00
 -5.775439066494E+00 -5.818247762771E+00 -5.857698142410E+00 -5.893801032307E+00
 -5.926573632601E+00 -5.956039843996E+00 -5.982230484372E+00 -6.005183358005E+00
 -6.024943140536E+00 -6.041561045816E+00 -6.055094247797E+00 -6.065605041684E+00
 -6.073159743380E+00 -6.077827343940E+00 -6.079677954574E+00 -6.078781096145E+00
 -6.075203902770E+00 -6.069009320564E+00 -6.060254388434E+00 -6.048988687753E+00
 -6.035253042329E+00 -6.019078540382E+00 -6.000485938006E+00 -5.979485490587E+00
 -5.956077246080E+00 -5.930251822995E+00 -5.901991686331E+00 -5.871272926169E+00
 -5.838067535275E+00 -5.802346172748E+00 -5.764081389693E+00 -5.723251279291E+00
 -5.679843497337E+00 -5.633859580394E+00 -5.585319467645E+00 -5.534266109842E+00