Hg    ONCVPSP-3.3.0  r_core=   1.40394   1.45509   1.40394   1.60079
80.0000     20.0000      180507    zatom,zion,pspd
8      11   3     4   600     0    pspcod,pspxc,lmax,lloc,mmax,r2well
5.99000000  5.00000000  0.00000000    rchrg fchrg qchrg
2     4     4     2    nproj
3     1           extension_switch
4     4     2    nprojso
0                        -9.6734254789249D-01  1.0174929966271D+01
1  0.0000000000000D+00  4.4265652254794D-09  2.6068636138632D-10
2  1.0000000000000D-02 -7.0443524052406D-02  6.9204687271462D-02
3  2.0000000000000D-02 -1.4038677654590D-01  1.3828636728163D-01
4  3.0000000000000D-02 -2.0933467875526D-01  2.0712208148594D-01
5  4.0000000000000D-02 -2.7680246373280D-01  2.7558897253192D-01
6  5.0000000000000D-02 -3.4232064862272D-01  3.4356434418406D-01
7  6.0000000000000D-02 -4.0543978989003D-01  4.1092573225486D-01
8  7.0000000000000D-02 -4.6573495438861D-01  4.7755098989954D-01
9  8.0000000000000D-02 -5.2280984361964D-01  5.4331839037145D-01
10  9.0000000000000D-02 -5.7630051393570D-01  6.0810675001642D-01
11  1.0000000000000D-01 -6.2587864174353D-01  6.7179557391322D-01
12  1.1000000000000D-01 -6.7125428985348D-01  7.3426522614806D-01
13  1.2000000000000D-01 -7.1217813890516D-01  7.9539712625129D-01
14  1.3000000000000D-01 -7.4844315614740D-01  8.5507397283001D-01
15  1.4000000000000D-01 -7.7988568263519D-01  9.1317999490988D-01
16  1.5000000000000D-01 -8.0638592899134D-01  9.6960123095907D-01
17  1.6000000000000D-01 -8.2786787912363D-01  1.0242258350177D+00
18  1.7000000000000D-01 -8.4429861054390D-01  1.0769444088035D+00
19  1.8000000000000D-01 -8.5568704905948D-01  1.1276503581181D+00
20  1.9000000000000D-01 -8.6208218445409D-01  1.1762402713484D+00
21  2.0000000000000D-01 -8.6357078220500D-01  1.2226143173472D+00
22  2.1000000000000D-01 -8.6027463416074D-01  1.2666766595042D+00
23  2.2000000000000D-01 -8.5234739830250D-01  1.3083358823755D+00
24  2.3000000000000D-01 -8.3997108411477D-01  1.3475054268529D+00
25  2.4000000000000D-01 -8.2335224559254D-01  1.3841040295098D+00
26  2.5000000000000D-01 -8.0271794842021D-01  1.4180561614823D+00
27  2.6000000000000D-01 -7.7831158129598D-01  1.4492924620232D+00
28  2.7000000000000D-01 -7.5038858368250D-01  1.4777501617157D+00
29  2.8000000000000D-01 -7.1921216339777D-01  1.5033734902526D+00
30  2.9000000000000D-01 -6.8504907739361D-01  1.5261140636768D+00
31  3.0000000000000D-01 -6.4816554779662D-01  1.5459312460441D+00
32  3.1000000000000D-01 -6.0882338281907D-01  1.5627924806045D+00
33  3.2000000000000D-01 -5.6727636851837D-01  1.5766735858126D+00
34  3.3000000000000D-01 -5.2376699264048D-01  1.5875590117510D+00
35  3.4000000000000D-01 -4.7852355599552D-01  1.5954420529035D+00
36  3.5000000000000D-01 -4.3175772006594D-01  1.6003250136203D+00
37  3.6000000000000D-01 -3.8366253194125D-01  1.6022193230868D+00
38  3.7000000000000D-01 -3.3441095932349D-01  1.6011455971241D+00
39  3.8000000000000D-01 -2.8415495938486D-01  1.5971336447143D+00
40  3.9000000000000D-01 -2.3302509581976D-01  1.5902224177433D+00
41  4.0000000000000D-01 -1.8113070867241D-01  1.5804599030838D+00
42  4.1000000000000D-01 -1.2856063158821D-01  1.5679029567896D+00
43  4.2000000000000D-01 -7.5384441199108D-02  1.5526170808352D+00
44  4.3000000000000D-01 -2.1654213566564D-02  1.5346761434967D+00
45  4.4000000000000D-01  3.2593246860382D-02  1.5141620451268D+00
46  4.5000000000000D-01  8.7333749306648D-02  1.4911643317156D+00
47  4.6000000000000D-01  1.4255268164702D-01  1.4657797592420D+00
48  4.7000000000000D-01  1.9824165777607D-01  1.4381118124009D+00
49  4.8000000000000D-01  2.5439491352305D-01  1.4082701818262D+00
50  4.9000000000000D-01  3.1100552290104D-01  1.3763702044152D+00
51  5.0000000000000D-01  3.6806151097400D-01  1.3425322717875D+00
52  5.1000000000000D-01  4.2554194288471D-01  1.3068812122716D+00
53  5.2000000000000D-01  4.8341307054275D-01  1.2695456521107D+00
54  5.3000000000000D-01  5.4162461906256D-01  1.2306573617902D+00
55  5.4000000000000D-01  6.0010629424503D-01  1.1903505935375D+00
56  5.5000000000000D-01  6.5876459019765D-01  1.1487614160990D+00
57  5.6000000000000D-01  7.1747997259311D-01  1.1060270528843D+00
58  5.7000000000000D-01  7.7610450813398D-01  1.0622852294605D+00
59  5.8000000000000D-01  8.3446000453020D-01  1.0176735362043D+00
60  5.9000000000000D-01  8.9233671786449D-01  9.7232881165509D-01
61  6.0000000000000D-01  9.4949267560699D-01  9.2638655178387D-01
62  6.1000000000000D-01  1.0056536540015D+00  8.7998034999091D-01
63  6.2000000000000D-01  1.0605138380765D+00  8.3324137217969D-01
64  6.3000000000000D-01  1.1137371814007D+00  7.8629787073515D-01
65  6.4000000000000D-01  1.1649594710368D+00  7.3927474066579D-01
66  6.5000000000000D-01  1.2137910910623D+00  6.9229312055802D-01
67  6.6000000000000D-01  1.2598204658556D+00  6.4547004035265D-01
68  6.7000000000000D-01  1.3026181521397D+00  5.9891811729127D-01
69  6.8000000000000D-01  1.3417415368010D+00  5.5274530070587D-01
70  6.9000000000000D-01  1.3767400859576D+00  5.0705466565076D-01
71  7.0000000000000D-01  1.4071610798548D+00  4.6194425471190D-01
72  7.1000000000000D-01  1.4325557579867D+00  4.1750696667873D-01
73  7.2000000000000D-01  1.4524857897417D+00  3.7383049014784D-01
74  7.3000000000000D-01  1.4665299778676D+00  3.3099727954774D-01
75  7.4000000000000D-01  1.4742910953622D+00  2.8908457054075D-01
76  7.5000000000000D-01  1.4754027511638D+00  2.4816443128323D-01
77  7.6000000000000D-01  1.4695361762918D+00  2.0830384560827D-01
78  7.7000000000000D-01  1.4564068200567D+00  1.6956482385210D-01
79  7.8000000000000D-01  1.4357806455997D+00  1.3200453677422D-01
80  7.9000000000000D-01  1.4074800154335D+00  9.5675467829067D-02
81  8.0000000000000D-01  1.3713890608185D+00  6.0625578937171D-02
82  8.1000000000000D-01  1.3274584337338D+00  2.6898484875916D-02
83  8.2000000000000D-01  1.2757093468274D+00 -5.4663685332891D-03
84  8.3000000000000D-01  1.2162368149991D+00 -3.6433527126254D-02
85  8.4000000000000D-01  1.1492120220864D+00 -6.5971356451707D-02
86  8.5000000000000D-01  1.0748837473519D+00 -9.4051879352501D-02
87  8.6000000000000D-01  9.9357879898469D-01 -1.2065062687679D-01
88  8.7000000000000D-01  9.0570141544039D-01 -1.4574650589192D-01
89  8.8000000000000D-01  8.1173160997253D-01 -1.6932168628389D-01
90  8.9000000000000D-01  7.1222244894647D-01 -1.9136151008523D-01
91  9.0000000000000D-01  6.0779627024659D-01 -2.1185442429375D-01
92  9.1000000000000D-01  4.9913986406053D-01 -2.3079193853262D-01
93  9.2000000000000D-01  3.8699865430558D-01 -2.4816860806994D-01
94  9.3000000000000D-01  2.7216993470608D-01 -2.6398204207350D-01
95  9.4000000000000D-01  1.5549522879078D-01 -2.7823293633497D-01
96  9.5000000000000D-01  3.7851857611732D-02 -2.9092512906839D-01
97  9.6000000000000D-01 -7.9856187445075D-02 -3.0206567778171D-01
98  9.7000000000000D-01 -1.9670795700744D-01 -3.1166495464678D-01
99  9.8000000000000D-01 -3.1177572050382D-01 -3.1973675726564D-01
100  9.9000000000000D-01 -4.2413547720014D-01 -3.2629843124885D-01
101  1.0000000000000D+00 -5.3287766391783D-01 -3.3137100062340D-01
102  1.0100000000000D+00 -6.3711791578177D-01 -3.3497930172168D-01
103  1.0200000000000D+00 -7.3600773294816D-01 -3.3715211595111D-01
104  1.0300000000000D+00 -8.2874490457464D-01 -3.3792229665116D-01
105  1.0400000000000D+00 -9.1458354186242D-01 -3.3732688514317D-01
106  1.0500000000000D+00 -9.9284357512530D-01 -3.3540721107449D-01
107  1.0600000000000D+00 -1.0629195742252D+00 -3.3220897222115D-01
108  1.0700000000000D+00 -1.1242887594313D+00 -3.2778228909133D-01
109  1.0800000000000D+00 -1.1765180787992D+00 -3.2218172992509D-01
110  1.0900000000000D+00 -1.2192702391401D+00 -3.1546630201646D-01
111  1.1000000000000D+00 -1.2523085920590D+00 -3.0769940575177D-01
112  1.1100000000000D+00 -1.2755007880778D+00 -2.9894874814140D-01
113  1.1200000000000D+00 -1.2888211318604D+00 -2.8928621331543D-01
114  1.1300000000000D+00 -1.2923515862342D+00 -2.7878768797924D-01
115  1.1400000000000D+00 -1.2862813937333D+00 -2.6753284058902D-01
116  1.1500000000000D+00 -1.2709052993112D+00 -2.5560485355629D-01
117  1.1600000000000D+00 -1.2466203820402D+00 -2.4309010869363D-01
118  1.1700000000000D+00 -1.2139215209224D+00 -2.3007782677372D-01
119  1.1800000000000D+00 -1.1733955426791D+00 -2.1665966294761D-01
120  1.1900000000000D+00 -1.1257141109203D+00 -2.0292926020996D-01
121  1.2000000000000D+00 -1.0716254453759D+00 -1.8898176424255D-01
122  1.2100000000000D+00 -1.0119449713122D+00 -1.7491330342382D-01
123  1.2200000000000D+00 -9.4754501492589D-01 -1.6082043841036D-01
124  1.2300000000000D+00 -8.7934367793371D-01 -1.4679958639132D-01
125  1.2400000000000D+00 -8.0829303904944D-01 -1.3294642570375D-01
126  1.2500000000000D+00 -7.3536683757943D-01 -1.1935528680522D-01
127  1.2600000000000D+00 -6.6154780481087D-01 -1.0611853602269D-01
128  1.2700000000000D+00 -5.8781481912503D-01 -9.3325958927763D-02
129  1.2800000000000D+00 -5.1513005943171D-01 -8.1064150142354D-02
130  1.2900000000000D+00 -4.4442633881276D-01 -6.9415916678243D-02
131  1.3000000000000D+00 -3.7659479745850D-01 -5.8459701827420D-02
132  1.3100000000000D+00 -3.1247312803415D-01 -4.8269036381585D-02
133  1.3200000000000D+00 -2.5283451106841D-01 -3.8912024149677D-02
134  1.3300000000000D+00 -1.9837741559812D-01 -3.0450867863061D-02
135  1.3400000000000D+00 -1.4971642037776D-01 -2.2941441555696D-02
136  1.3500000000000D+00 -1.0737420296093D-01 -1.6432915200059D-02
137  1.3600000000000D+00 -7.1793963963193D-02 -1.0970317224327D-02
138  1.3700000000000D+00 -4.3242901022953D-02 -6.5805615588102D-03
139  1.3800000000000D+00 -2.1823249116029D-02 -3.2755198802825D-03
140  1.3900000000000D+00 -8.2971534096143D-03 -1.1681049196763D-03
141  1.4000000000000D+00 -2.0814461148487D-03 -1.9071110683405D-04
142  1.4100000000000D+00 -1.6973455190475D-04  5.7542012535236D-05
143  1.4200000000000D+00  9.9623552087615D-06  6.4398205679695D-06
144  1.4300000000000D+00 -4.9801989932919D-05 -2.0503577242395D-05
145  1.4400000000000D+00  1.3977111376672D-06  1.6060921340353D-06
146  1.4500000000000D+00  3.9275273630445D-06  2.8526904225371D-06
147  1.4600000000000D+00  2.3675341043862D-06  7.5439547874235D-08
148  1.4700000000000D+00  1.1997224417374D-06  3.8228179442725D-08
149  1.4800000000000D+00  0.0000000000000D+00  0.0000000000000D+00
150  1.4900000000000D+00  0.0000000000000D+00  0.0000000000000D+00
151  1.5000000000000D+00  0.0000000000000D+00  0.0000000000000D+00
152  1.5100000000000D+00  0.0000000000000D+00  0.0000000000000D+00
153  1.5200000000000D+00  0.0000000000000D+00  0.0000000000000D+00
154  1.5300000000000D+00  0.0000000000000D+00  0.0000000000000D+00
155  1.5400000000000D+00  0.0000000000000D+00  0.0000000000000D+00
156  1.5500000000000D+00  0.0000000000000D+00  0.0000000000000D+00
157  1.5600000000000D+00  0.0000000000000D+00  0.0000000000000D+00
158  1.5700000000000D+00  0.0000000000000D+00  0.0000000000000D+00
159  1.5800000000000D+00  0.0000000000000D+00  0.0000000000000D+00
160  1.5900000000000D+00  0.0000000000000D+00  0.0000000000000D+00
161  1.6000000000000D+00  0.0000000000000D+00  0.0000000000000D+00
162  1.6100000000000D+00  0.0000000000000D+00  0.0000000000000D+00
163  1.6200000000000D+00  0.0000000000000D+00  0.0000000000000D+00
164  1.6300000000000D+00  0.0000000000000D+00  0.0000000000000D+00
165  1.6400000000000D+00  0.0000000000000D+00  0.0000000000000D+00
166  1.6500000000000D+00  0.0000000000000D+00  0.0000000000000D+00
167  1.6600000000000D+00  0.0000000000000D+00  0.0000000000000D+00
168  1.6700000000000D+00  0.0000000000000D+00  0.0000000000000D+00
169  1.6800000000000D+00  0.0000000000000D+00  0.0000000000000D+00
170  1.6900000000000D+00  0.0000000000000D+00  0.0000000000000D+00
171  1.7000000000000D+00  0.0000000000000D+00  0.0000000000000D+00
172  1.7100000000000D+00  0.0000000000000D+00  0.0000000000000D+00
173  1.7200000000000D+00  0.0000000000000D+00  0.0000000000000D+00
174  1.7300000000000D+00  0.0000000000000D+00  0.0000000000000D+00
175  1.7400000000000D+00  0.0000000000000D+00  0.0000000000000D+00
176  1.7500000000000D+00  0.0000000000000D+00  0.0000000000000D+00
177  1.7600000000000D+00  0.0000000000000D+00  0.0000000000000D+00
178  1.7700000000000D+00  0.0000000000000D+00  0.0000000000000D+00
179  1.7800000000000D+00  0.0000000000000D+00  0.0000000000000D+00
180  1.7900000000000D+00  0.0000000000000D+00  0.0000000000000D+00
181  1.8000000000000D+00  0.0000000000000D+00  0.0000000000000D+00
182  1.8100000000000D+00  0.0000000000000D+00  0.0000000000000D+00
183  1.8200000000000D+00  0.0000000000000D+00  0.0000000000000D+00
184  1.8300000000000D+00  0.0000000000000D+00  0.0000000000000D+00
185  1.8400000000000D+00  0.0000000000000D+00  0.0000000000000D+00
186  1.8500000000000D+00  0.0000000000000D+00  0.0000000000000D+00
187  1.8600000000000D+00  0.0000000000000D+00  0.0000000000000D+00
188  1.8700000000000D+00  0.0000000000000D+00  0.0000000000000D+00
189  1.8800000000000D+00  0.0000000000000D+00  0.0000000000000D+00
190  1.8900000000000D+00  0.0000000000000D+00  0.0000000000000D+00
191  1.9000000000000D+00  0.0000000000000D+00  0.0000000000000D+00
192  1.9100000000000D+00  0.0000000000000D+00  0.0000000000000D+00
193  1.9200000000000D+00  0.0000000000000D+00  0.0000000000000D+00
194  1.9300000000000D+00  0.0000000000000D+00  0.0000000000000D+00
195  1.9400000000000D+00  0.0000000000000D+00  0.0000000000000D+00
196  1.9500000000000D+00  0.0000000000000D+00  0.0000000000000D+00
197  1.9600000000000D+00  0.0000000000000D+00  0.0000000000000D+00
198  1.9700000000000D+00  0.0000000000000D+00  0.0000000000000D+00
199  1.9800000000000D+00  0.0000000000000D+00  0.0000000000000D+00
200  1.9900000000000D+00  0.0000000000000D+00  0.0000000000000D+00
201  2.0000000000000D+00  0.0000000000000D+00  0.0000000000000D+00
202  2.0100000000000D+00  0.0000000000000D+00  0.0000000000000D+00
203  2.0200000000000D+00  0.0000000000000D+00  0.0000000000000D+00
204  2.0300000000000D+00  0.0000000000000D+00  0.0000000000000D+00
205  2.0400000000000D+00  0.0000000000000D+00  0.0000000000000D+00
206  2.0500000000000D+00  0.0000000000000D+00  0.0000000000000D+00
207  2.0600000000000D+00  0.0000000000000D+00  0.0000000000000D+00
208  2.0700000000000D+00  0.0000000000000D+00  0.0000000000000D+00
209  2.0800000000000D+00  0.0000000000000D+00  0.0000000000000D+00
210  2.0900000000000D+00  0.0000000000000D+00  0.0000000000000D+00
211  2.1000000000000D+00  0.0000000000000D+00  0.0000000000000D+00
212  2.1100000000000D+00  0.0000000000000D+00  0.0000000000000D+00
213  2.1200000000000D+00  0.0000000000000D+00  0.0000000000000D+00
214  2.1300000000000D+00  0.0000000000000D+00  0.0000000000000D+00
215  2.1400000000000D+00  0.0000000000000D+00  0.0000000000000D+00
216  2.1500000000000D+00  0.0000000000000D+00  0.0000000000000D+00
217  2.1600000000000D+00  0.0000000000000D+00  0.0000000000000D+00
218  2.1700000000000D+00  0.0000000000000D+00  0.0000000000000D+00
219  2.1800000000000D+00  0.0000000000000D+00  0.0000000000000D+00
220  2.1900000000000D+00  0.0000000000000D+00  0.0000000000000D+00
221  2.2000000000000D+00  0.0000000000000D+00  0.0000000000000D+00
222  2.2100000000000D+00  0.0000000000000D+00  0.0000000000000D+00
223  2.2200000000000D+00  0.0000000000000D+00  0.0000000000000D+00
224  2.2300000000000D+00  0.0000000000000D+00  0.0000000000000D+00
225  2.2400000000000D+00  0.0000000000000D+00  0.0000000000000D+00
226  2.2500000000000D+00  0.0000000000000D+00  0.0000000000000D+00
227  2.2600000000000D+00  0.0000000000000D+00  0.0000000000000D+00
228  2.2700000000000D+00  0.0000000000000D+00  0.0000000000000D+00
229  2.2800000000000D+00  0.0000000000000D+00  0.0000000000000D+00
230  2.2900000000000D+00  0.0000000000000D+00  0.0000000000000D+00
231  2.3000000000000D+00  0.0000000000000D+00  0.0000000000000D+00
232  2.3100000000000D+00  0.0000000000000D+00  0.0000000000000D+00
233  2.3200000000000D+00  0.0000000000000D+00  0.0000000000000D+00
234  2.3300000000000D+00  0.0000000000000D+00  0.0000000000000D+00
235  2.3400000000000D+00  0.0000000000000D+00  0.0000000000000D+00
236  2.3500000000000D+00  0.0000000000000D+00  0.0000000000000D+00
237  2.3600000000000D+00  0.0000000000000D+00  0.0000000000000D+00
238  2.3700000000000D+00  0.0000000000000D+00  0.0000000000000D+00
239  2.3800000000000D+00  0.0000000000000D+00  0.0000000000000D+00
240  2.3900000000000D+00  0.0000000000000D+00  0.0000000000000D+00
241  2.4000000000000D+00  0.0000000000000D+00  0.0000000000000D+00
242  2.4100000000000D+00  0.0000000000000D+00  0.0000000000000D+00
243  2.4200000000000D+00  0.0000000000000D+00  0.0000000000000D+00
244  2.4300000000000D+00  0.0000000000000D+00  0.0000000000000D+00
245  2.4400000000000D+00  0.0000000000000D+00  0.0000000000000D+00
246  2.4500000000000D+00  0.0000000000000D+00  0.0000000000000D+00
247  2.4600000000000D+00  0.0000000000000D+00  0.0000000000000D+00
248  2.4700000000000D+00  0.0000000000000D+00  0.0000000000000D+00
249  2.4800000000000D+00  0.0000000000000D+00  0.0000000000000D+00
250  2.4900000000000D+00  0.0000000000000D+00  0.0000000000000D+00
251  2.5000000000000D+00  0.0000000000000D+00  0.0000000000000D+00
252  2.5100000000000D+00  0.0000000000000D+00  0.0000000000000D+00
253  2.5200000000000D+00  0.0000000000000D+00  0.0000000000000D+00
254  2.5300000000000D+00  0.0000000000000D+00  0.0000000000000D+00
255  2.5400000000000D+00  0.0000000000000D+00  0.0000000000000D+00
256  2.5500000000000D+00  0.0000000000000D+00  0.0000000000000D+00
257  2.5600000000000D+00  0.0000000000000D+00  0.0000000000000D+00
258  2.5700000000000D+00  0.0000000000000D+00  0.0000000000000D+00
259  2.5800000000000D+00  0.0000000000000D+00  0.0000000000000D+00
260  2.5900000000000D+00  0.0000000000000D+00  0.0000000000000D+00
261  2.6000000000000D+00  0.0000000000000D+00  0.0000000000000D+00
262  2.6100000000000D+00  0.0000000000000D+00  0.0000000000000D+00
263  2.6200000000000D+00  0.0000000000000D+00  0.0000000000000D+00
264  2.6300000000000D+00  0.0000000000000D+00  0.0000000000000D+00
265  2.6400000000000D+00  0.0000000000000D+00  0.0000000000000D+00
266  2.6500000000000D+00  0.0000000000000D+00  0.0000000000000D+00
267  2.6600000000000D+00  0.0000000000000D+00  0.0000000000000D+00
268  2.6700000000000D+00  0.0000000000000D+00  0.0000000000000D+00
269  2.6800000000000D+00  0.0000000000000D+00  0.0000000000000D+00
270  2.6900000000000D+00  0.0000000000000D+00  0.0000000000000D+00
271  2.7000000000000D+00  0.0000000000000D+00  0.0000000000000D+00
272  2.7100000000000D+00  0.0000000000000D+00  0.0000000000000D+00
273  2.7200000000000D+00  0.0000000000000D+00  0.0000000000000D+00
274  2.7300000000000D+00  0.0000000000000D+00  0.0000000000000D+00
275  2.7400000000000D+00  0.0000000000000D+00  0.0000000000000D+00
276  2.7500000000000D+00  0.0000000000000D+00  0.0000000000000D+00
277  2.7600000000000D+00  0.0000000000000D+00  0.0000000000000D+00
278  2.7700000000000D+00  0.0000000000000D+00  0.0000000000000D+00
279  2.7800000000000D+00  0.0000000000000D+00  0.0000000000000D+00
280  2.7900000000000D+00  0.0000000000000D+00  0.0000000000000D+00
281  2.8000000000000D+00  0.0000000000000D+00  0.0000000000000D+00
282  2.8100000000000D+00  0.0000000000000D+00  0.0000000000000D+00
283  2.8200000000000D+00  0.0000000000000D+00  0.0000000000000D+00
284  2.8300000000000D+00  0.0000000000000D+00  0.0000000000000D+00
285  2.8400000000000D+00  0.0000000000000D+00  0.0000000000000D+00
286  2.8500000000000D+00  0.0000000000000D+00  0.0000000000000D+00
287  2.8600000000000D+00  0.0000000000000D+00  0.0000000000000D+00
288  2.8700000000000D+00  0.0000000000000D+00  0.0000000000000D+00
289  2.8800000000000D+00  0.0000000000000D+00  0.0000000000000D+00
290  2.8900000000000D+00  0.0000000000000D+00  0.0000000000000D+00
291  2.9000000000000D+00  0.0000000000000D+00  0.0000000000000D+00
292  2.9100000000000D+00  0.0000000000000D+00  0.0000000000000D+00
293  2.9200000000000D+00  0.0000000000000D+00  0.0000000000000D+00
294  2.9300000000000D+00  0.0000000000000D+00  0.0000000000000D+00
295  2.9400000000000D+00  0.0000000000000D+00  0.0000000000000D+00
296  2.9500000000000D+00  0.0000000000000D+00  0.0000000000000D+00
297  2.9600000000000D+00  0.0000000000000D+00  0.0000000000000D+00
298  2.9700000000000D+00  0.0000000000000D+00  0.0000000000000D+00
299  2.9800000000000D+00  0.0000000000000D+00  0.0000000000000D+00
300  2.9900000000000D+00  0.0000000000000D+00  0.0000000000000D+00
301  3.0000000000000D+00  0.0000000000000D+00  0.0000000000000D+00
302  3.0100000000000D+00  0.0000000000000D+00  0.0000000000000D+00
303  3.0200000000000D+00  0.0000000000000D+00  0.0000000000000D+00
304  3.0300000000000D+00  0.0000000000000D+00  0.0000000000000D+00
305  3.0400000000000D+00  0.0000000000000D+00  0.0000000000000D+00
306  3.0500000000000D+00  0.0000000000000D+00  0.0000000000000D+00
307  3.0600000000000D+00  0.0000000000000D+00  0.0000000000000D+00
308  3.0700000000000D+00  0.0000000000000D+00  0.0000000000000D+00
309  3.0800000000000D+00  0.0000000000000D+00  0.0000000000000D+00
310  3.0900000000000D+00  0.0000000000000D+00  0.0000000000000D+00
311  3.1000000000000D+00  0.0000000000000D+00  0.0000000000000D+00
312  3.1100000000000D+00  0.0000000000000D+00  0.0000000000000D+00
313  3.1200000000000D+00  0.0000000000000D+00  0.0000000000000D+00
314  3.1300000000000D+00  0.0000000000000D+00  0.0000000000000D+00
315  3.1400000000000D+00  0.0000000000000D+00  0.0000000000000D+00
316  3.1500000000000D+00  0.0000000000000D+00  0.0000000000000D+00
317  3.1600000000000D+00  0.0000000000000D+00  0.0000000000000D+00
318  3.1700000000000D+00  0.0000000000000D+00  0.0000000000000D+00
319  3.1800000000000D+00  0.0000000000000D+00  0.0000000000000D+00
320  3.1900000000000D+00  0.0000000000000D+00  0.0000000000000D+00
321  3.2000000000000D+00  0.0000000000000D+00  0.0000000000000D+00
322  3.2100000000000D+00  0.0000000000000D+00  0.0000000000000D+00
323  3.2200000000000D+00  0.0000000000000D+00  0.0000000000000D+00
324  3.2300000000000D+00  0.0000000000000D+00  0.0000000000000D+00
325  3.2400000000000D+00  0.0000000000000D+00  0.0000000000000D+00
326  3.2500000000000D+00  0.0000000000000D+00  0.0000000000000D+00
327  3.2600000000000D+00  0.0000000000000D+00  0.0000000000000D+00
328  3.2700000000000D+00  0.0000000000000D+00  0.0000000000000D+00
329  3.2800000000000D+00  0.0000000000000D+00  0.0000000000000D+00
330  3.2900000000000D+00  0.0000000000000D+00  0.0000000000000D+00
331  3.3000000000000D+00  0.0000000000000D+00  0.0000000000000D+00
332  3.3100000000000D+00  0.0000000000000D+00  0.0000000000000D+00
333  3.3200000000000D+00  0.0000000000000D+00  0.0000000000000D+00
334  3.3300000000000D+00  0.0000000000000D+00  0.0000000000000D+00
335  3.3400000000000D+00  0.0000000000000D+00  0.0000000000000D+00
336  3.3500000000000D+00  0.0000000000000D+00  0.0000000000000D+00
337  3.3600000000000D+00  0.0000000000000D+00  0.0000000000000D+00
338  3.3700000000000D+00  0.0000000000000D+00  0.0000000000000D+00
339  3.3800000000000D+00  0.0000000000000D+00  0.0000000000000D+00
340  3.3900000000000D+00  0.0000000000000D+00  0.0000000000000D+00
341  3.4000000000000D+00  0.0000000000000D+00  0.0000000000000D+00
342  3.4100000000000D+00  0.0000000000000D+00  0.0000000000000D+00
343  3.4200000000000D+00  0.0000000000000D+00  0.0000000000000D+00
344  3.4300000000000D+00  0.0000000000000D+00  0.0000000000000D+00
345  3.4400000000000D+00  0.0000000000000D+00  0.0000000000000D+00
346  3.4500000000000D+00  0.0000000000000D+00  0.0000000000000D+00
347  3.4600000000000D+00  0.0000000000000D+00  0.0000000000000D+00
348  3.4700000000000D+00  0.0000000000000D+00  0.0000000000000D+00
349  3.4800000000000D+00  0.0000000000000D+00  0.0000000000000D+00
350  3.4900000000000D+00  0.0000000000000D+00  0.0000000000000D+00
351  3.5000000000000D+00  0.0000000000000D+00  0.0000000000000D+00
352  3.5100000000000D+00  0.0000000000000D+00  0.0000000000000D+00
353  3.5200000000000D+00  0.0000000000000D+00  0.0000000000000D+00
354  3.5300000000000D+00  0.0000000000000D+00  0.0000000000000D+00
355  3.5400000000000D+00  0.0000000000000D+00  0.0000000000000D+00
356  3.5500000000000D+00  0.0000000000000D+00  0.0000000000000D+00
357  3.5600000000000D+00  0.0000000000000D+00  0.0000000000000D+00
358  3.5700000000000D+00  0.0000000000000D+00  0.0000000000000D+00
359  3.5800000000000D+00  0.0000000000000D+00  0.0000000000000D+00
360  3.5900000000000D+00  0.0000000000000D+00  0.0000000000000D+00
361  3.6000000000000D+00  0.0000000000000D+00  0.0000000000000D+00
362  3.6100000000000D+00  0.0000000000000D+00  0.0000000000000D+00
363  3.6200000000000D+00  0.0000000000000D+00  0.0000000000000D+00
364  3.6300000000000D+00  0.0000000000000D+00  0.0000000000000D+00
365  3.6400000000000D+00  0.0000000000000D+00  0.0000000000000D+00
366  3.6500000000000D+00  0.0000000000000D+00  0.0000000000000D+00
367  3.6600000000000D+00  0.0000000000000D+00  0.0000000000000D+00
368  3.6700000000000D+00  0.0000000000000D+00  0.0000000000000D+00
369  3.6800000000000D+00  0.0000000000000D+00  0.0000000000000D+00
370  3.6900000000000D+00  0.0000000000000D+00  0.0000000000000D+00
371  3.7000000000000D+00  0.0000000000000D+00  0.0000000000000D+00
372  3.7100000000000D+00  0.0000000000000D+00  0.0000000000000D+00
373  3.7200000000000D+00  0.0000000000000D+00  0.0000000000000D+00
374  3.7300000000000D+00  0.0000000000000D+00  0.0000000000000D+00
375  3.7400000000000D+00  0.0000000000000D+00  0.0000000000000D+00
376  3.7500000000000D+00  0.0000000000000D+00  0.0000000000000D+00
377  3.7600000000000D+00  0.0000000000000D+00  0.0000000000000D+00
378  3.7700000000000D+00  0.0000000000000D+00  0.0000000000000D+00
379  3.7800000000000D+00  0.0000000000000D+00  0.0000000000000D+00
380  3.7900000000000D+00  0.0000000000000D+00  0.0000000000000D+00
381  3.8000000000000D+00  0.0000000000000D+00  0.0000000000000D+00
382  3.8100000000000D+00  0.0000000000000D+00  0.0000000000000D+00
383  3.8200000000000D+00  0.0000000000000D+00  0.0000000000000D+00
384  3.8300000000000D+00  0.0000000000000D+00  0.0000000000000D+00
385  3.8400000000000D+00  0.0000000000000D+00  0.0000000000000D+00
386  3.8500000000000D+00  0.0000000000000D+00  0.0000000000000D+00
387  3.8600000000000D+00  0.0000000000000D+00  0.0000000000000D+00
388  3.8700000000000D+00  0.0000000000000D+00  0.0000000000000D+00
389  3.8800000000000D+00  0.0000000000000D+00  0.0000000000000D+00
390  3.8900000000000D+00  0.0000000000000D+00  0.0000000000000D+00
391  3.9000000000000D+00  0.0000000000000D+00  0.0000000000000D+00
392  3.9100000000000D+00  0.0000000000000D+00  0.0000000000000D+00
393  3.9200000000000D+00  0.0000000000000D+00  0.0000000000000D+00
394  3.9300000000000D+00  0.0000000000000D+00  0.0000000000000D+00
395  3.9400000000000D+00  0.0000000000000D+00  0.0000000000000D+00
396  3.9500000000000D+00  0.0000000000000D+00  0.0000000000000D+00
397  3.9600000000000D+00  0.0000000000000D+00  0.0000000000000D+00
398  3.9700000000000D+00  0.0000000000000D+00  0.0000000000000D+00
399  3.9800000000000D+00  0.0000000000000D+00  0.0000000000000D+00
400  3.9900000000000D+00  0.0000000000000D+00  0.0000000000000D+00
401  4.0000000000000D+00  0.0000000000000D+00  0.0000000000000D+00
402  4.0100000000000D+00  0.0000000000000D+00  0.0000000000000D+00
403  4.0200000000000D+00  0.0000000000000D+00  0.0000000000000D+00
404  4.0300000000000D+00  0.0000000000000D+00  0.0000000000000D+00
405  4.0400000000000D+00  0.0000000000000D+00  0.0000000000000D+00
406  4.0500000000000D+00  0.0000000000000D+00  0.0000000000000D+00
407  4.0600000000000D+00  0.0000000000000D+00  0.0000000000000D+00
408  4.0700000000000D+00  0.0000000000000D+00  0.0000000000000D+00
409  4.0800000000000D+00  0.0000000000000D+00  0.0000000000000D+00
410  4.0900000000000D+00  0.0000000000000D+00  0.0000000000000D+00
411  4.1000000000000D+00  0.0000000000000D+00  0.0000000000000D+00
412  4.1100000000000D+00  0.0000000000000D+00  0.0000000000000D+00
413  4.1200000000000D+00  0.0000000000000D+00  0.0000000000000D+00
414  4.1300000000000D+00  0.0000000000000D+00  0.0000000000000D+00
415  4.1400000000000D+00  0.0000000000000D+00  0.0000000000000D+00
416  4.1500000000000D+00  0.0000000000000D+00  0.0000000000000D+00
417  4.1600000000000D+00  0.0000000000000D+00  0.0000000000000D+00
418  4.1700000000000D+00  0.0000000000000D+00  0.0000000000000D+00
419  4.1800000000000D+00  0.0000000000000D+00  0.0000000000000D+00
420  4.1900000000000D+00  0.0000000000000D+00  0.0000000000000D+00
421  4.2000000000000D+00  0.0000000000000D+00  0.0000000000000D+00
422  4.2100000000000D+00  0.0000000000000D+00  0.0000000000000D+00
423  4.2200000000000D+00  0.0000000000000D+00  0.0000000000000D+00
424  4.2300000000000D+00  0.0000000000000D+00  0.0000000000000D+00
425  4.2400000000000D+00  0.0000000000000D+00  0.0000000000000D+00
426  4.2500000000000D+00  0.0000000000000D+00  0.0000000000000D+00
427  4.2600000000000D+00  0.0000000000000D+00  0.0000000000000D+00
428  4.2700000000000D+00  0.0000000000000D+00  0.0000000000000D+00
429  4.2800000000000D+00  0.0000000000000D+00  0.0000000000000D+00
430  4.2900000000000D+00  0.0000000000000D+00  0.0000000000000D+00
431  4.3000000000000D+00  0.0000000000000D+00  0.0000000000000D+00
432  4.3100000000000D+00  0.0000000000000D+00  0.0000000000000D+00
433  4.3200000000000D+00  0.0000000000000D+00  0.0000000000000D+00
434  4.3300000000000D+00  0.0000000000000D+00  0.0000000000000D+00
435  4.3400000000000D+00  0.0000000000000D+00  0.0000000000000D+00
436  4.3500000000000D+00  0.0000000000000D+00  0.0000000000000D+00
437  4.3600000000000D+00  0.0000000000000D+00  0.0000000000000D+00
438  4.3700000000000D+00  0.0000000000000D+00  0.0000000000000D+00
439  4.3800000000000D+00  0.0000000000000D+00  0.0000000000000D+00
440  4.3900000000000D+00  0.0000000000000D+00  0.0000000000000D+00
441  4.4000000000000D+00  0.0000000000000D+00  0.0000000000000D+00
442  4.4100000000000D+00  0.0000000000000D+00  0.0000000000000D+00
443  4.4200000000000D+00  0.0000000000000D+00  0.0000000000000D+00