<?xml version="1.0" encoding="UTF-8" ?>
<psml version="1.1" energy_unit="hartree" length_unit="bohr"
 uuid="0361ba40-5214-11e8-41ac-84d5f46bbb22"
 xmlns="http://esl.cecam.org/PSML/ns/1.1">
<provenance creator="ONCVPSP-3.3.0+psml-3.3.0-73 (fully-relativistic)"
 date="2018-05-07">
<annotation action="semilocal-pseudopotential-generation"
 action-cont="projectors-generation" />
<input-file name="oncvpsp-input">
<![CDATA[# atsym z nc nv iexc psfile
Hg 80 10 4 4 both
# n l f
1 0 2.0
2 0 2.0
2 1 6.0
3 0 2.0
3 1 6.0
3 2 10.0
4 0 2.0
4 1 6.0
4 2 10.0
4 3 14.0
5 0 2.0
5 1 6.0
5 2 10.0
6 0 2.0
# lmax
3
# l rc ep ncon nbas qcut
0 1.4 0.0 4 8 9.0
1 1.45 0.0 4 8 9.0
2 1.4 0.0 4 8 9.0
3 1.6 0.1 4 8 6.8
# lloc lpopt rc5 dvloc0
4 5 1.4 0.0
# l nproj debl
0 2 1.0
1 2 2.8
2 2 1.8
3 1 1.5
# icmod fcfact rcfact
3 5.0 1.37
# epsh1 epsh2 depsh
-12.0 12.0 0.02
# rlmax drl
6.0 0.01
 0
]]>
</input-file>
</provenance>
<pseudo-atom-spec atomic-label="Hg" atomic-number="80" z-pseudo="20"
 flavor="Hamann&apos;s oncvpsp" relativity="dirac" spin-dft="no"
 core-corrections="yes">
<annotation pseudo-energy="-155.635436973" />
<exchange-correlation>
<annotation oncvpsp-xc-code="4" oncvpsp-xc-type="GGA -- Perdew-Burke-Ernzerhof" />
<libxc-info number-of-functionals="2">
<functional name="Perdew, Burke &amp; Ernzerhof (GGA)" type="exchange" id="101" />
<functional name="Perdew, Burke &amp; Ernzerhof (GGA)" type="correlation"
 id="130" />
</libxc-info>
</exchange-correlation>
<valence-configuration total-valence-charge="20">
<shell n="5" l="s" occupation="2" />
<shell n="5" l="p" occupation="6" />
<shell n="5" l="d" occupation="10" />
<shell n="6" l="s" occupation="2" />
</valence-configuration>
</pseudo-atom-spec>
<grid npts="457">
<annotation type="sampled from oncvpsp log grid"
 recipe="r(i:1..N) = r1*exp(a*(i-1)) + r=0; resampled"
 recipe-cont="r1: scale; a: step" scale="0.625000000000E-05"
 step="0.119285708653E-01" delta="0.500000000000E-02" rmax="44.1080184274" />
<grid-data>
  0.000000000000E+00  5.036716794685E-03  1.006044653004E-02  1.509227403831E-02
  2.009495242827E-02  2.520674221625E-02  3.050738058830E-02  3.562473008824E-02
  4.110718453678E-02  4.631512683008E-02  5.156410335150E-02  5.672722906228E-02
  6.240733975628E-02  6.784209610731E-02  7.287563178056E-02  7.828262999150E-02
  8.409079974550E-02  8.925880031034E-02  9.474441267004E-02  1.005671564146E-01
  1.067477507570E-01  1.119646129040E-01  1.174364279700E-01  1.231756557421E-01
  1.291953649286E-01  1.355092629178E-01  1.421317269910E-01  1.473101156723E-01
  1.526771723584E-01  1.582397709279E-01  1.640050357007E-01  1.699803505620E-01
  1.761733684197E-01  1.825920210056E-01  1.892445290339E-01  1.961394127302E-01
  2.032855027437E-01  2.106919514570E-01  2.157788979330E-01  2.209886636447E-01
  2.263242139397E-01  2.317885857611E-01  2.373848893757E-01  2.431163101448E-01
  2.489861103369E-01  2.549976309849E-01  2.611542937874E-01  2.674596030566E-01
  2.739171477128E-01  2.805306033271E-01  2.873037342139E-01  2.942403955727E-01
  3.013445356834E-01  3.086201981530E-01  3.160715242172E-01  3.237027550979E-01
  3.315182344170E-01  3.395224106687E-01  3.477198397519E-01  3.561151875629E-01
  3.647132326514E-01  3.735188689406E-01  3.825371085123E-01  3.917730844602E-01
  4.012320538114E-01  4.109194005186E-01  4.208406385247E-01  4.258907261870E-01
  4.310014149013E-01  4.361734318801E-01  4.414075130626E-01  4.467044032194E-01
  4.520648560580E-01  4.574896343307E-01  4.629795099427E-01  4.685352640620E-01
  4.741576872307E-01  4.798475794775E-01  4.856057504312E-01  4.914330194364E-01
  4.973302156697E-01  5.032981782577E-01  5.093377563968E-01  5.154498094735E-01
  5.216352071872E-01  5.278948296735E-01  5.342295676296E-01  5.406403224411E-01
  5.471280063104E-01  5.536935423861E-01  5.603378648948E-01  5.670619192735E-01
  5.738666623048E-01  5.807530622524E-01  5.877220989995E-01  5.947747641875E-01
  6.019120613577E-01  6.091350060940E-01  6.164446261671E-01  6.238419616811E-01
  6.313280652213E-01  6.389040020040E-01  6.465708500280E-01  6.543297002283E-01
  6.621816566311E-01  6.701278365107E-01  6.781693705488E-01  6.863074029954E-01
  6.945430918313E-01  7.028776089333E-01  7.113121402405E-01  7.198478859234E-01
  7.284860605545E-01  7.372278932811E-01  7.460746280005E-01  7.550275235365E-01
  7.640878538189E-01  7.732569080648E-01  7.825359909615E-01  7.919264228531E-01
  8.014295399273E-01  8.110466944064E-01  8.207792547393E-01  8.306286057962E-01
  8.405961490657E-01  8.506833028545E-01  8.608915024888E-01  8.712222005187E-01
  8.816768669249E-01  8.922569893280E-01  9.029640731999E-01  9.137996420783E-01
  9.247652377832E-01  9.358624206366E-01  9.470927696843E-01  9.584578829205E-01
  9.699593775155E-01  9.815988900457E-01  9.933780767263E-01  1.005298613647E+00
  1.017362197011E+00  1.029570543375E+00  1.041925389895E+00  1.054428494574E+00
  1.067081636509E+00  1.079886616147E+00  1.092845255541E+00  1.105959398607E+00
  1.119230911391E+00  1.132661682327E+00  1.146253622515E+00  1.160008665985E+00
  1.173928769977E+00  1.188015915217E+00  1.202272106200E+00  1.216699371474E+00
  1.231299763932E+00  1.246075361099E+00  1.261028265432E+00  1.276160604617E+00
  1.291474531873E+00  1.306972226255E+00  1.322655892970E+00  1.338527763686E+00
  1.354590096850E+00  1.370845178012E+00  1.387295320148E+00  1.403942863990E+00
  1.420790178358E+00  1.437839660498E+00  1.455093736424E+00  1.472554861261E+00
  1.490225519597E+00  1.508108225832E+00  1.526205524542E+00  1.544519990836E+00
  1.563054230726E+00  1.581810881495E+00  1.600792612073E+00  1.620002123418E+00
  1.639442148899E+00  1.659115454686E+00  1.679024840142E+00  1.699173138224E+00
  1.719563215882E+00  1.740197974473E+00  1.761080350166E+00  1.782213314368E+00
  1.803599874141E+00  1.825243072631E+00  1.847145989502E+00  1.869311741376E+00
  1.891743482273E+00  1.914444404060E+00  1.937417736909E+00  1.960666749752E+00
  1.984194750749E+00  2.008005087758E+00  2.032101148811E+00  2.056486362596E+00
  2.081164198948E+00  2.106138169335E+00  2.131411827367E+00  2.156988769295E+00
  2.182872634527E+00  2.209067106141E+00  2.235575911415E+00  2.262402822352E+00
  2.289551656220E+00  2.317026276095E+00  2.344830591408E+00  2.372968558505E+00
  2.401444181207E+00  2.430261511381E+00  2.459424649518E+00  2.488937745312E+00
  2.518804998256E+00  2.549030658235E+00  2.579619026134E+00  2.610574454447E+00
  2.641901347901E+00  2.673604164076E+00  2.705687414044E+00  2.738155663013E+00
  2.771013530969E+00  2.804265693341E+00  2.837916881661E+00  2.871971884241E+00
  2.906435546852E+00  2.941312773414E+00  2.976608526695E+00  3.012327829015E+00
  3.048475762963E+00  3.085057472119E+00  3.122078161784E+00  3.159543099726E+00
  3.197457616923E+00  3.235827108326E+00  3.274657033625E+00  3.313952918029E+00
  3.353720353045E+00  3.393964997282E+00  3.434692577249E+00  3.475908888176E+00
  3.517619794834E+00  3.559831232372E+00  3.602549207161E+00  3.645779797647E+00
  3.689529155219E+00  3.733803505081E+00  3.778609147142E+00  3.823952456908E+00
  3.869839886391E+00  3.916277965027E+00  3.963273300608E+00  4.010832580215E+00
  4.058962571178E+00  4.107670122032E+00  4.156962163496E+00  4.206845709458E+00
  4.257327857972E+00  4.308415792267E+00  4.360116781774E+00  4.412438183156E+00
  4.465387441354E+00  4.518972090650E+00  4.573199755738E+00  4.628078152807E+00
  4.683615090640E+00  4.739818471728E+00  4.796696293389E+00  4.854256648909E+00
  4.912507728696E+00  4.971457821441E+00  5.031115315298E+00  5.091488699081E+00
  5.152586563470E+00  5.214417602232E+00  5.276990613459E+00  5.340314500820E+00
  5.404398274830E+00  5.469251054128E+00  5.534882066778E+00  5.601300651579E+00
  5.668516259398E+00  5.736538454511E+00  5.805376915965E+00  5.875041438956E+00
  5.945541936224E+00  6.016888439459E+00  6.089091100732E+00  6.162160193941E+00
  6.236106116268E+00  6.310939389663E+00  6.386670662339E+00  6.463310710287E+00
  6.540870438811E+00  6.619360884077E+00  6.698793214686E+00  6.779178733262E+00
  6.860528878061E+00  6.942855224598E+00  7.026169487293E+00  7.110483521140E+00
  7.195809323394E+00  7.282159035275E+00  7.369544943698E+00  7.457979483022E+00
  7.547475236819E+00  7.638044939660E+00  7.729701478936E+00  7.822457896684E+00
  7.916327391444E+00  8.011323320141E+00  8.107459199983E+00  8.204748710383E+00
  8.303205694907E+00  8.402844163246E+00  8.503678293205E+00  8.605722432724E+00
  8.708991101916E+00  8.813498995139E+00  8.919260983081E+00  9.026292114878E+00
  9.134607620256E+00  9.244222911700E+00  9.355153586640E+00  9.467415429680E+00
  9.581024414836E+00  9.695996707814E+00  9.812348668308E+00  9.930096852327E+00
  1.004925801456E+01  1.016984911073E+01  1.029188730006E+01  1.041538994766E+01
  1.054037462703E+01  1.066685912256E+01  1.079486143203E+01  1.092439976921E+01
  1.105549256644E+01  1.118815847724E+01  1.132241637897E+01  1.145828537551E+01
  1.159578480002E+01  1.173493421762E+01  1.187575342823E+01  1.201826246937E+01
  1.216248161900E+01  1.230843139843E+01  1.245613257521E+01  1.260560616611E+01
  1.275687344011E+01  1.290995592139E+01  1.306487539244E+01  1.322165389715E+01
  1.338031374392E+01  1.354087750885E+01  1.370336803895E+01  1.386780845542E+01
  1.403422215689E+01  1.420263282277E+01  1.437306441664E+01  1.454554118964E+01
  1.472008768392E+01  1.489672873612E+01  1.507548948096E+01  1.525639535473E+01
  1.543947209899E+01  1.562474576417E+01  1.581224271334E+01  1.600198962590E+01
  1.619401350141E+01  1.638834166343E+01  1.658500176339E+01  1.678402178455E+01
  1.698543004597E+01  1.718925520652E+01  1.739552626900E+01  1.760427258423E+01
  1.781552385524E+01  1.802931014150E+01  1.824566186320E+01  1.846460980556E+01
  1.868618512322E+01  1.891041934470E+01  1.913734437684E+01  1.936699250936E+01
  1.959939641947E+01  1.983458917651E+01  2.007260424662E+01  2.031347549758E+01
  2.055723720355E+01  2.080392405000E+01  2.105357113860E+01  2.130621399226E+01
  2.156188856017E+01  2.182063122289E+01  2.208247879756E+01  2.234746854313E+01
  2.261563816565E+01  2.288702582364E+01  2.316167013352E+01  2.343961017513E+01
  2.372088549723E+01  2.400553612319E+01  2.429360255667E+01  2.458512578735E+01
  2.488014729680E+01  2.517870906436E+01  2.548085357313E+01  2.578662381601E+01
  2.609606330180E+01  2.640921606143E+01  2.672612665416E+01  2.704684017401E+01
  2.737140225610E+01  2.769985908317E+01  2.803225739217E+01  2.836864448088E+01
  2.870906821465E+01  2.905357703323E+01  2.940221995762E+01  2.975504659712E+01
  3.011210715628E+01  3.047345244216E+01  3.083913387146E+01  3.120920347792E+01
  3.158371391965E+01  3.196271848669E+01  3.234627110853E+01  3.273442636183E+01
  3.312723947817E+01  3.352476635191E+01  3.392706354814E+01  3.433418831071E+01
  3.474619857044E+01  3.516315295329E+01  3.558511078873E+01  3.601213211819E+01
  3.644427770361E+01  3.688160903605E+01  3.732418834449E+01  3.777207860462E+01
  3.822534354788E+01  3.868404767045E+01  3.914825624250E+01  3.961803531741E+01
  4.009345174121E+01  4.057457316211E+01  4.106146804005E+01  4.155420565653E+01
  4.205285612441E+01  4.255749039791E+01  4.306818028268E+01  4.358499844607E+01
  4.410801842743E+01
</grid-data>
</grid>
<valence-charge total-charge="20" is-unscreening-charge="yes"
 rescaled-to-z-pseudo="no">
<radfunc>
<data npts="457">
  1.477186204245E+00  1.478927950780E+00  1.484135636091E+00  1.492827261496E+00
  1.504918700774E+00  1.520830228451E+00  1.541129942219E+00  1.564403289519E+00
  1.593349727993E+00  1.624697656622E+00  1.660096298550E+00  1.698649055857E+00
  1.745348704908E+00  1.794245489556E+00  1.843217839911E+00  1.899782032590E+00
  1.965122642101E+00  2.027260310648E+00  2.097347793831E+00  2.176409452421E+00
  2.265602516444E+00  2.345124461664E+00  2.432709964575E+00  2.529181111334E+00
  2.635443317263E+00  2.752493241811E+00  2.881427213302E+00  2.986647062198E+00
  3.099778348911E+00  3.221411891741E+00  3.352180218820E+00  3.492759756128E+00
  3.643872921479E+00  3.806290056696E+00  3.980831112673E+00  4.168366981027E+00
  4.369820341173E+00  4.586165862325E+00  4.739174239708E+00  4.899572711429E+00
  5.067687112675E+00  5.243852239200E+00  5.428411186117E+00  5.621714505522E+00
  5.824119157234E+00  6.035987224390E+00  6.257684362949E+00  6.489577951390E+00
  6.732034904120E+00  6.985419109335E+00  7.250088449430E+00  7.526391359566E+00
  7.814662877842E+00  8.115220138768E+00  8.428357260617E+00  8.754339576885E+00
  9.093397162764E+00  9.445717609536E+00  9.811438003365E+00  1.019063607051E+01
  1.058332045889E+01  1.098942013652E+01  1.140877290152E+01  1.184111301573E+01
  1.228605799638E+01  1.274309462697E+01  1.321156428070E+01  1.344983716983E+01
  1.369064768800E+01  1.393386576393E+01  1.417934932412E+01  1.442694380067E+01
  1.467648164354E+01  1.492778184015E+01  1.518064944533E+01  1.543487512507E+01
  1.569023471776E+01  1.594648881693E+01  1.620338237970E+01  1.646064436565E+01
  1.671798741098E+01  1.697510754313E+01  1.723168394142E+01  1.748737874959E+01
  1.774183694618E+01  1.799468627915E+01  1.824553727141E+01  1.849398330388E+01
  1.873960078305E+01  1.898194940020E+01  1.922057248923E+01  1.945499749029E+01
  1.968473652633E+01  1.990928709923E+01  2.012813291252E+01  2.034074482665E+01
  2.054658195297E+01  2.074509289164E+01  2.093571711816E+01  2.111788652229E+01
  2.129102710243E+01  2.145456081704E+01  2.160790759385E+01  2.175048749598E+01
  2.188172304249E+01  2.200104167952E+01  2.210787839589E+01  2.220167847555E+01
  2.228190037674E+01  2.234801872589E+01  2.239952741188E+01  2.243594276395E+01
  2.245680679421E+01  2.246169048356E+01  2.245019708731E+01  2.242196543475E+01
  2.237667319494E+01  2.231404007912E+01  2.223383094849E+01  2.213585879501E+01
  2.201998756172E+01  2.188613476893E+01  2.173427391203E+01  2.156443659783E+01
  2.137671438649E+01  2.117126030842E+01  2.094829002699E+01  2.070808262095E+01
  2.045098096342E+01  2.017739167818E+01  1.988778465809E+01  1.958269213506E+01
  1.926270729594E+01  1.892848244369E+01  1.858072670852E+01  1.822020331885E+01
  1.784772644682E+01  1.746415764803E+01  1.707040191945E+01  1.666740340315E+01
  1.625614076686E+01  1.583762229479E+01  1.541288072400E+01  1.498296786249E+01
  1.454894902596E+01  1.411189732954E+01  1.367288787055E+01  1.323299183709E+01
  1.279327057640E+01  1.235476965613E+01  1.191851295080E+01  1.148549678626E+01
  1.105668417536E+01  1.063299918032E+01  1.021532143959E+01  9.804480901168E+00
  9.401252808900E+00  9.006352993449E+00  8.620433525520E+00  8.244078794221E+00
  7.877802078369E+00  7.522042682143E+00  7.177163708273E+00  6.843450541295E+00
  6.521110109922E+00  6.210270990759E+00  5.910984405314E+00  5.623226148542E+00
  5.346900979770E+00  5.081854008777E+00  4.827885967511E+00  4.584760405927E+00
  4.352212474028E+00  4.129961869976E+00  3.917715593712E+00  3.715170595500E+00
  3.522016223695E+00  3.337936475666E+00  3.162612055753E+00  2.995722244920E+00
  2.836946587933E+00  2.685966404815E+00  2.542466134119E+00  2.406134516244E+00
  2.276665625011E+00  2.153759757280E+00  2.037124189018E+00  1.926473807025E+00
  1.821531626493E+00  1.722029202541E+00  1.627706945255E+00  1.538314346897E+00
  1.453610129775E+00  1.373362322912E+00  1.297348275308E+00  1.225354613158E+00
  1.157177148002E+00  1.092620742325E+00  1.031499138685E+00  9.736347580209E-01
  9.188584723259E-01  8.670093564568E-01  8.179344234141E-01  7.714883470241E-01
  7.275331755545E-01  6.859380394223E-01  6.465788557927E-01  6.093380325325E-01
  5.741041736675E-01  5.407717881952E-01  5.092410038389E-01  4.794172870726E-01
  4.512111705211E-01  4.245379886308E-01  3.993176223172E-01  3.754742531273E-01
  3.529361273041E-01  3.316353300060E-01  3.115075698188E-01  2.924919735937E-01
  2.745308915577E-01  2.575697125684E-01  2.415566893222E-01  2.264427732705E-01
  2.121814589604E-01  1.987286374786E-01  1.860424586548E-01  1.740832016609E-01
  1.628131536297E-01  1.521964959107E-01  1.421991975759E-01  1.327889157931E-01
  1.239349026839E-01  1.156079182946E-01  1.077801493155E-01  1.004251331926E-01
  9.351768729181E-02  8.703384278316E-02  8.095078292875E-02  7.524678547109E-02
  6.990116882601E-02  6.489424180866E-02  6.020725662380E-02  5.582236486892E-02
  5.172257631095E-02  4.789172021005E-02  4.431440897624E-02  4.097600395754E-02
  3.786258317039E-02  3.496091079630E-02  3.225840828053E-02  2.974312688185E-02
  2.740372153462E-02  2.522942589697E-02  2.321002847131E-02  2.133584969525E-02
  1.959771991295E-02  1.798695814790E-02  1.649535160915E-02  1.511513587289E-02
  1.383897569058E-02  1.265994638374E-02  1.157151579280E-02  1.056752675466E-02
  9.642180089597E-03  8.790018083091E-03  8.005908452688E-03  7.285028793494E-03
  6.622851498538E-03  6.015129152359E-03  5.457880397542E-03  4.947376274683E-03
  4.480127036609E-03  4.052869437442E-03  3.662554496607E-03  3.306335737004E-03
  2.981557895465E-03  2.685746102383E-03  2.416595525973E-03  2.171961475209E-03
  1.949849954039E-03  1.748408658058E-03  1.565918403532E-03  1.400784977433E-03
  1.251531396149E-03  1.116790559605E-03  9.952982868849E-04  8.858867189114E-04
  7.874780734456E-04  6.990787375263E-04  6.197736825166E-04  5.487211870979E-04
  4.851478538759E-04  4.283439056854E-04  3.776587481814E-04  3.324967858687E-04
  2.923134793187E-04  2.566116319397E-04  2.249378952734E-04  1.968794823897E-04
  1.720610795122E-04  1.501419465385E-04  1.308131976010E-04  1.137952532540E-04
  9.883545626504E-05  8.570584333679E-05  7.420106539171E-05  6.413644932109E-05
  5.534619433722E-05  4.768169627750E-05  4.100999339788E-05  3.521232736588E-05
  3.018281332463E-05  2.582721305402E-05  2.206180540697E-05  1.881234835044E-05
  1.601312709562E-05  1.360608296106E-05  1.154001777770E-05  9.769868816400E-06
  8.256049397348E-06  6.963850525939E-06  5.862899090817E-06  4.926668356461E-06
  4.132036683272E-06  3.458890611843E-06  2.889768653470E-06  2.409542334861E-06
  2.005131249908E-06  1.665249074287E-06  1.380177698156E-06  1.141566827390E-06
  9.422565935607E-07  7.761208964360E-07  6.379293793749E-07  5.232261070733E-07
  4.282231761574E-07  3.497076418229E-07  2.849602878235E-07  2.316849025061E-07
  1.879468502612E-07  1.521198457502E-07  1.228399477559E-07  9.896589066163E-08
  7.954496469028E-08  6.378374141752E-08  5.102301908137E-08  4.071643320444E-08
  3.241224243283E-08  2.573785767745E-08  2.038673503651E-08  1.610729999256E-08
  1.269361242232E-08  9.977519429918E-09  7.822076298894E-09  6.116045324994E-09
  4.769308291323E-09  3.709051212657E-09  2.876600017899E-09  2.224803350148E-09
  1.715873912377E-09  1.319613022100E-09  1.011954489186E-09  7.737738052819E-10
  5.899171206169E-10  4.484117551158E-10  3.398261997794E-10  2.567528488227E-10
  1.933911860358E-10  1.452129392183E-10  1.086939107058E-10  8.109987476930E-11
  6.031617836040E-11  4.471255511805E-11  3.303622004885E-11  2.432121808860E-11
  1.784982797996E-11  1.305555797924E-11  9.482211669814E-12  6.888441378564E-12
  4.986412063081E-12  3.596606684747E-12  2.584739542833E-12  1.850720852133E-12
  1.320220083204E-12  9.382396648875E-13  6.642381089149E-13  4.684428278873E-13
  3.290729756527E-13  2.302557173855E-13  1.604688408505E-13  1.113813169953E-13
  7.699354508647E-14  5.300237771012E-14  3.633405980128E-14  2.480208791734E-14
  1.685761907183E-14  1.140815913021E-14  7.686411579649E-15  5.155817591035E-15
  3.442818495870E-15  2.288494827559E-15  1.514192984443E-15  9.972039359909E-16
  6.536328614571E-16  4.263892984381E-16  2.768065237955E-16  1.788210882187E-16
  1.149497427127E-16  7.352216542929E-17  4.678680914962E-17  2.962081127479E-17
  1.865571783482E-17  1.168803273440E-17  7.283800174874E-18  4.514753570611E-18
  2.783180633708E-18  1.706285135542E-18  1.040245634077E-18  6.306162247221E-19
  3.801104720567E-19  2.277928771100E-19  1.357143746227E-19  8.037785095857E-20
  4.731957268022E-20  2.768903312682E-20  1.610295567995E-20  9.306836848654E-21
  5.345209479702E-21  3.050425209420E-21  1.729640917581E-21  0.000000000000E+00
  0.000000000000E+00  0.000000000000E+00  0.000000000000E+00  0.000000000000E+00
  0.000000000000E+00  0.000000000000E+00  0.000000000000E+00  0.000000000000E+00
  0.000000000000E+00  0.000000000000E+00  0.000000000000E+00  0.000000000000E+00
  0.000000000000E+00  0.000000000000E+00  0.000000000000E+00  0.000000000000E+00
  0.000000000000E+00  0.000000000000E+00  0.000000000000E+00  0.000000000000E+00
  0.000000000000E+00  0.000000000000E+00  0.000000000000E+00  0.000000000000E+00
  0.000000000000E+00
</data>
</radfunc>
</valence-charge>
<pseudocore-charge matching-radius="0.764087853819"
 number-of-continuous-derivatives="4">
<annotation model-charge-form="Teter function with specified parameters" />
<radfunc>
<data npts="290">
  1.155520040072E+02  1.155435522983E+02  1.155182877379E+02  1.154761392343E+02
  1.154175413885E+02  1.153404967416E+02  1.152423130050E+02  1.151298960227E+02
  1.149902976449E+02  1.148393925083E+02  1.146693285092E+02  1.144845190090E+02
  1.142612196128E+02  1.140280689924E+02  1.137952214504E+02  1.135270932134E+02
  1.132184366363E+02  1.129259626836E+02  1.125972822839E+02  1.122280339843E+02
  1.118133633775E+02  1.114453172698E+02  1.110417290300E+02  1.105993103145E+02
  1.101144987419E+02  1.095834415279E+02  1.090019796340E+02  1.085301224983E+02
  1.080253864891E+02  1.074856499728E+02  1.069086804502E+02  1.062921329459E+02
  1.056335491686E+02  1.049303576114E+02  1.041798747772E+02  1.033793077460E+02
  1.025257583218E+02  1.016162290288E+02  1.009772544472E+02  1.003110933274E+02
  9.961679586976E+01  9.889339999003E+01  9.813993358588E+01  9.735541712336E+01
  9.653886656912E+01  9.568929669535E+01  9.480572478512E+01  9.388717476626E+01
  9.293268180249E+01  9.194129737046E+01  9.091209485100E+01  8.984417566239E+01
  8.873667596196E+01  8.758877394085E+01  8.639969773404E+01  8.516873396463E+01
  8.389523693724E+01  8.257863849005E+01  8.121845850906E+01  7.981431610028E+01
  7.836594140671E+01  7.687318804659E+01  7.533604613727E+01  7.375465585472E+01
  7.212932146359E+01  7.046052573405E+01  6.874894464255E+01  6.787737731434E+01
  6.699546223085E+01  6.610334484738E+01  6.520118547430E+01  6.428915972954E+01
  6.336745898367E+01  6.243629079566E+01  6.149587933721E+01  6.054646580377E+01
  5.958830880974E+01  5.862168476571E+01  5.764688823498E+01  5.666423226706E+01
  5.567404870510E+01  5.467668846453E+01  5.367252177997E+01  5.266193841717E+01
  5.164534784685E+01  5.062317937712E+01  4.959588224112E+01  4.856392563631E+01
  4.752779871184E+01  4.648801050057E+01  4.544508979179E+01  4.439958494121E+01
  4.335206361439E+01  4.230311245997E+01  4.125333670904E+01  4.020335969715E+01
  3.915382230533E+01  3.810538231689E+01  3.705871368679E+01  3.601450572046E+01
  3.497346215939E+01  3.393630017091E+01  3.290374924004E+01  3.187654996146E+01
  3.085545273023E+01  2.984121633030E+01  2.883460642021E+01  2.783639391618E+01
  2.684735327321E+01  2.586826066550E+01  2.489989206837E+01  2.394302124424E+01
  2.299841763668E+01  2.206684417665E+01  2.114905500664E+01  2.024579312889E+01
  1.935778798513E+01  1.848575297633E+01  1.763038293172E+01  1.679235153772E+01
  1.597230873848E+01  1.517087812053E+01  1.438865429558E+01  1.362620029602E+01
  1.288404499933E+01  1.216268059793E+01  1.146256013240E+01  1.078409510664E+01
  1.012765320418E+01  9.493556125568E+00  8.882077567301E+00  8.293441362842E+00
  7.727819806606E+00  7.185332181632E+00  6.666043511375E+00  6.169963555557E+00
  5.697046069188E+00  5.247188342872E+00  4.820231041125E+00  4.415958353822E+00
  4.034098473969E+00  3.674324412710E+00  3.336255159972E+00  3.019457196258E+00
  2.723446357982E+00  2.447690055301E+00  2.191609837733E+00  1.954584298962E+00
  1.735952308149E+00  1.535016550867E+00  1.351047358459E+00  1.183286800325E+00
  1.030953009333E+00  8.932447064064E-01  7.693458863496E-01  6.584306233030E-01
  5.596679508654E-01  4.722267690713E-01  3.952807280726E-01  3.280130366791E-01
  2.696211429332E-01  2.193212336988E-01  1.763525009123E-01  1.399811237155E-01
  1.095039182158E-01  8.425161010684E-02  6.359168984526E-02  4.693081548006E-02
  3.371673452919E-02  2.343970341529E-02  1.563339080478E-02  9.875259611941E-03
  5.786431274714E-03  3.031044998044E-03  1.315133790456E-03  3.850480665560E-04
  2.546611783661E-05  5.703862449692E-05  3.337213515420E-04  7.398560115725E-04
  1.187063771115E-03  1.611018840911E-03  1.968170873778E-03  2.232484392441E-03
  2.392261133546E-03  2.447107032710E-03  2.405099663743E-03  2.280204425831E-03
  2.089978855739E-03  1.853594402652E-03  1.590194173637E-03  1.317593917995E-03
  1.051322283677E-03  8.039855808240E-04  5.849323576476E-04  4.001844417345E-04
  2.525940909409E-04  1.421818332736E-04  6.660667058074E-05  2.171969157729E-05
  2.153787454559E-06  1.905970243281E-06  1.487452326343E-05  3.532051637155E-05
  5.823165305393E-05  7.957546664963E-05  9.643799231938E-05  1.070526464629E-04
  1.107316144217E-04  1.077181189110E-04  9.898216003017E-05  8.598446299509E-05
  7.043337866977E-05  5.405745725754E-05  3.841262161514E-05  2.473771133309E-05
  1.386617067497E-05  6.195398033833E-06  1.709360836530E-06  4.506372166402E-08
  5.897966997914E-07  2.594094872172E-06  5.285142296380E-06  7.966882851683E-06
  1.009610180262E-05  1.132779046669E-05  1.152766464583E-05  1.075418596455E-05
  9.216267227421E-06  7.215557660450E-06  5.083490137714E-06  3.123022086471E-06
  1.563326323936E-06  5.329041238853E-07  5.317573123106E-08  0.000000000000E+00
  0.000000000000E+00  0.000000000000E+00  0.000000000000E+00  0.000000000000E+00
  0.000000000000E+00  0.000000000000E+00  0.000000000000E+00  0.000000000000E+00
  0.000000000000E+00  0.000000000000E+00  0.000000000000E+00  0.000000000000E+00
  0.000000000000E+00  0.000000000000E+00  0.000000000000E+00  0.000000000000E+00
  0.000000000000E+00  0.000000000000E+00  0.000000000000E+00  0.000000000000E+00
  0.000000000000E+00  0.000000000000E+00  0.000000000000E+00  0.000000000000E+00
  0.000000000000E+00  0.000000000000E+00  0.000000000000E+00  0.000000000000E+00
  0.000000000000E+00  0.000000000000E+00  0.000000000000E+00  0.000000000000E+00
  0.000000000000E+00  0.000000000000E+00  0.000000000000E+00  0.000000000000E+00
  0.000000000000E+00  0.000000000000E+00  0.000000000000E+00  0.000000000000E+00
  0.000000000000E+00  0.000000000000E+00  0.000000000000E+00  0.000000000000E+00
  0.000000000000E+00  0.000000000000E+00  0.000000000000E+00  0.000000000000E+00
  0.000000000000E+00  0.000000000000E+00  0.000000000000E+00  0.000000000000E+00
  0.000000000000E+00  0.000000000000E+00
</data>
</radfunc>
</pseudocore-charge>
<semilocal-potentials set="scalar_relativistic">
<slps n="5" l="s" rc="1.40394286399">
<radfunc>
<data npts="290">
 -1.300142061009E+00 -1.306722003775E+00 -1.326377314025E+00 -1.359121360447E+00
 -1.404547841567E+00 -1.464104319159E+00 -1.539722369015E+00 -1.625920458015E+00
 -1.732396906557E+00 -1.846800914690E+00 -1.974870452700E+00 -2.113022566601E+00
 -2.278544011053E+00 -2.449749864980E+00 -2.619106184175E+00 -2.812138161599E+00
 -3.031758482667E+00 -3.237350799017E+00 -3.465527970129E+00 -3.718319181329E+00
 -3.997825141751E+00 -4.242105587651E+00 -4.505961105251E+00 -4.790486380034E+00
 -5.096749159349E+00 -5.425770675974E+00 -5.778503292882E+00 -6.059133849508E+00
 -6.353905853527E+00 -6.663092449323E+00 -6.986913927812E+00 -7.325530071444E+00
 -7.679032326600E+00 -8.047435916202E+00 -8.430672022706E+00 -8.828580187422E+00
 -9.240901085370E+00 -9.667269844633E+00 -9.959089550284E+00 -1.025677366988E+01
 -1.056012884433E+01 -1.086893765883E+01 -1.118295830055E+01 -1.150192433440E+01
 -1.182554460326E+01 -1.215350325768E+01 -1.248545991830E+01 -1.282104997307E+01
 -1.315988500878E+01 -1.350155337531E+01 -1.384562087827E+01 -1.419163159411E+01
 -1.453910879960E+01 -1.488755600557E+01 -1.523645808290E+01 -1.558528246715E+01
 -1.593348042660E+01 -1.628048837706E+01 -1.662572922605E+01 -1.696861372820E+01
 -1.730854183318E+01 -1.764490400792E+01 -1.797708251510E+01 -1.830445263081E+01
 -1.862638378577E+01 -1.894224061609E+01 -1.925138391183E+01 -1.940323738789E+01
 -1.955317145415E+01 -1.970110548118E+01 -1.984695873480E+01 -1.999065039205E+01
 -2.013209955517E+01 -2.027122526382E+01 -2.040794650559E+01 -2.054218222481E+01
 -2.067385132976E+01 -2.080287269847E+01 -2.092916518322E+01 -2.105264761374E+01
 -2.117323879958E+01 -2.129085753154E+01 -2.140542258256E+01 -2.151685270822E+01
 -2.162506664709E+01 -2.172998312132E+01 -2.183152083748E+01 -2.192959848833E+01
 -2.202413475557E+01 -2.211504831395E+01 -2.220225783722E+01 -2.228568200622E+01
 -2.236523951949E+01 -2.244084910680E+01 -2.251242954615E+01 -2.257989968452E+01
 -2.264317846285E+01 -2.270218494579E+01 -2.275683835658E+01 -2.280705811761E+01
 -2.285276389703E+01 -2.289387566195E+01 -2.293031373867E+01 -2.296199888035E+01
 -2.298885234268E+01 -2.301079596778E+01 -2.302775227701E+01 -2.303964457285E+01
 -2.304639705043E+01 -2.304793491891E+01 -2.304418453329E+01 -2.303507353680E+01
 -2.302053101434E+01 -2.300048765728E+01 -2.297487593999E+01 -2.294363030852E+01
 -2.290668738172E+01 -2.286398616543E+01 -2.281546828007E+01 -2.276107820235E+01
 -2.270076352171E+01 -2.263447521225E+01 -2.256216792110E+01 -2.248380027434E+01
 -2.239933520151E+01 -2.230874028029E+01 -2.221198810292E+01 -2.210905666619E+01
 -2.199992978707E+01 -2.188459754651E+01 -2.176305676401E+01 -2.163531150615E+01
 -2.150137363256E+01 -2.136126338343E+01 -2.121501001323E+01 -2.106265247579E+01
 -2.090424016730E+01 -2.073983373409E+01 -2.056950595393E+01 -2.039334270073E+01
 -2.021144400442E+01 -2.002392522002E+01 -1.983091832231E+01 -1.963257334575E+01
 -1.942905999247E+01 -1.922056943556E+01 -1.900731634876E+01 -1.878954119919E+01
 -1.856751284436E+01 -1.834153148031E+01 -1.811193199286E+01 -1.787908776833E+01