<?xml version="1.0" encoding="UTF-8" ?>
<psml version="1.1" energy_unit="hartree" length_unit="bohr"
 uuid="079eed40-4728-11e8-6df1-2d82afb0e9fc"
 xmlns="http://esl.cecam.org/PSML/ns/1.1">
<provenance creator="ONCVPSP-3.3.0+psml-3.3.0-73 (fully-relativistic)"
 date="2018-04-23">
<annotation action="semilocal-pseudopotential-generation"
 action-cont="projectors-generation" />
<input-file name="oncvpsp-input">
<![CDATA[# atsym z nc nv iexc psfile
Hg 80 10 4 4 both
# n l f
1 0 2.0
2 0 2.0
2 1 6.0
3 0 2.0
3 1 6.0
3 2 10.0
4 0 2.0
4 1 6.0
4 2 10.0
4 3 14.0
5 0 2.0
5 1 6.0
5 2 10.0
6 0 2.0
# lmax
3
# l rc ep ncon nbas qcut
0 1.6 0.0 4 8 8.0
1 1.6 0.0 4 8 8.2
2 1.45 0.0 4 8 8.8
3 1.6 0.1 4 8 6.8
# lloc lpopt rc5 dvloc0
4 5 1.45 0.0
# l nproj debl
0 2 1.0
1 2 2.8
2 2 1.8
3 1 1.5
# icmod fcfact rcfact
3 5.0 1.37
# epsh1 epsh2 depsh
-12.0 12.0 0.02
# rlmax drl
6.0 0.01
 0
]]>
</input-file>
</provenance>
<pseudo-atom-spec atomic-label="Hg" atomic-number="80" z-pseudo="20"
 flavor="Hamann&apos;s oncvpsp" relativity="dirac" spin-dft="no"
 core-corrections="yes">
<annotation pseudo-energy="-156.270178715" />
<exchange-correlation>
<annotation oncvpsp-xc-code="4" oncvpsp-xc-type="GGA -- Perdew-Burke-Ernzerhof" />
<libxc-info number-of-functionals="2">
<functional name="Perdew, Burke &amp; Ernzerhof (GGA)" type="exchange" id="101" />
<functional name="Perdew, Burke &amp; Ernzerhof (GGA)" type="correlation"
 id="130" />
</libxc-info>
</exchange-correlation>
<valence-configuration total-valence-charge="20">
<shell n="5" l="s" occupation="2" />
<shell n="5" l="p" occupation="6" />
<shell n="5" l="d" occupation="10" />
<shell n="6" l="s" occupation="2" />
</valence-configuration>
</pseudo-atom-spec>
<grid npts="457">
<annotation type="sampled from oncvpsp log grid"
 recipe="r(i:1..N) = r1*exp(a*(i-1)) + r=0; resampled"
 recipe-cont="r1: scale; a: step" scale="0.625000000000E-05"
 step="0.119285708653E-01" delta="0.500000000000E-02" rmax="44.1080184274" />
<grid-data>
  0.000000000000E+00  5.036716794685E-03  1.006044653004E-02  1.509227403831E-02
  2.009495242827E-02  2.520674221625E-02  3.050738058830E-02  3.562473008824E-02
  4.110718453678E-02  4.631512683008E-02  5.156410335150E-02  5.672722906228E-02
  6.240733975628E-02  6.784209610731E-02  7.287563178056E-02  7.828262999150E-02
  8.409079974550E-02  8.925880031034E-02  9.474441267004E-02  1.005671564146E-01
  1.067477507570E-01  1.119646129040E-01  1.174364279700E-01  1.231756557421E-01
  1.291953649286E-01  1.355092629178E-01  1.421317269910E-01  1.473101156723E-01
  1.526771723584E-01  1.582397709279E-01  1.640050357007E-01  1.699803505620E-01
  1.761733684197E-01  1.825920210056E-01  1.892445290339E-01  1.961394127302E-01
  2.032855027437E-01  2.106919514570E-01  2.157788979330E-01  2.209886636447E-01
  2.263242139397E-01  2.317885857611E-01  2.373848893757E-01  2.431163101448E-01
  2.489861103369E-01  2.549976309849E-01  2.611542937874E-01  2.674596030566E-01
  2.739171477128E-01  2.805306033271E-01  2.873037342139E-01  2.942403955727E-01
  3.013445356834E-01  3.086201981530E-01  3.160715242172E-01  3.237027550979E-01
  3.315182344170E-01  3.395224106687E-01  3.477198397519E-01  3.561151875629E-01
  3.647132326514E-01  3.735188689406E-01  3.825371085123E-01  3.917730844602E-01
  4.012320538114E-01  4.109194005186E-01  4.208406385247E-01  4.258907261870E-01
  4.310014149013E-01  4.361734318801E-01  4.414075130626E-01  4.467044032194E-01
  4.520648560580E-01  4.574896343307E-01  4.629795099427E-01  4.685352640620E-01
  4.741576872307E-01  4.798475794775E-01  4.856057504312E-01  4.914330194364E-01
  4.973302156697E-01  5.032981782577E-01  5.093377563968E-01  5.154498094735E-01
  5.216352071872E-01  5.278948296735E-01  5.342295676296E-01  5.406403224411E-01
  5.471280063104E-01  5.536935423861E-01  5.603378648948E-01  5.670619192735E-01
  5.738666623048E-01  5.807530622524E-01  5.877220989995E-01  5.947747641875E-01
  6.019120613577E-01  6.091350060940E-01  6.164446261671E-01  6.238419616811E-01
  6.313280652213E-01  6.389040020040E-01  6.465708500280E-01  6.543297002283E-01
  6.621816566311E-01  6.701278365107E-01  6.781693705488E-01  6.863074029954E-01
  6.945430918313E-01  7.028776089333E-01  7.113121402405E-01  7.198478859234E-01
  7.284860605545E-01  7.372278932811E-01  7.460746280005E-01  7.550275235365E-01
  7.640878538189E-01  7.732569080648E-01  7.825359909615E-01  7.919264228531E-01
  8.014295399273E-01  8.110466944064E-01  8.207792547393E-01  8.306286057962E-01
  8.405961490657E-01  8.506833028545E-01  8.608915024888E-01  8.712222005187E-01
  8.816768669249E-01  8.922569893280E-01  9.029640731999E-01  9.137996420783E-01
  9.247652377832E-01  9.358624206366E-01  9.470927696843E-01  9.584578829205E-01
  9.699593775155E-01  9.815988900457E-01  9.933780767263E-01  1.005298613647E+00
  1.017362197011E+00  1.029570543375E+00  1.041925389895E+00  1.054428494574E+00
  1.067081636509E+00  1.079886616147E+00  1.092845255541E+00  1.105959398607E+00
  1.119230911391E+00  1.132661682327E+00  1.146253622515E+00  1.160008665985E+00
  1.173928769977E+00  1.188015915217E+00  1.202272106200E+00  1.216699371474E+00
  1.231299763932E+00  1.246075361099E+00  1.261028265432E+00  1.276160604617E+00
  1.291474531873E+00  1.306972226255E+00  1.322655892970E+00  1.338527763686E+00
  1.354590096850E+00  1.370845178012E+00  1.387295320148E+00  1.403942863990E+00
  1.420790178358E+00  1.437839660498E+00  1.455093736424E+00  1.472554861261E+00
  1.490225519597E+00  1.508108225832E+00  1.526205524542E+00  1.544519990836E+00
  1.563054230726E+00  1.581810881495E+00  1.600792612073E+00  1.620002123418E+00
  1.639442148899E+00  1.659115454686E+00  1.679024840142E+00  1.699173138224E+00
  1.719563215882E+00  1.740197974473E+00  1.761080350166E+00  1.782213314368E+00
  1.803599874141E+00  1.825243072631E+00  1.847145989502E+00  1.869311741376E+00
  1.891743482273E+00  1.914444404060E+00  1.937417736909E+00  1.960666749752E+00
  1.984194750749E+00  2.008005087758E+00  2.032101148811E+00  2.056486362596E+00
  2.081164198948E+00  2.106138169335E+00  2.131411827367E+00  2.156988769295E+00
  2.182872634527E+00  2.209067106141E+00  2.235575911415E+00  2.262402822352E+00
  2.289551656220E+00  2.317026276095E+00  2.344830591408E+00  2.372968558505E+00
  2.401444181207E+00  2.430261511381E+00  2.459424649518E+00  2.488937745312E+00
  2.518804998256E+00  2.549030658235E+00  2.579619026134E+00  2.610574454447E+00
  2.641901347901E+00  2.673604164076E+00  2.705687414044E+00  2.738155663013E+00
  2.771013530969E+00  2.804265693341E+00  2.837916881661E+00  2.871971884241E+00
  2.906435546852E+00  2.941312773414E+00  2.976608526695E+00  3.012327829015E+00
  3.048475762963E+00  3.085057472119E+00  3.122078161784E+00  3.159543099726E+00
  3.197457616923E+00  3.235827108326E+00  3.274657033625E+00  3.313952918029E+00
  3.353720353045E+00  3.393964997282E+00  3.434692577249E+00  3.475908888176E+00
  3.517619794834E+00  3.559831232372E+00  3.602549207161E+00  3.645779797647E+00
  3.689529155219E+00  3.733803505081E+00  3.778609147142E+00  3.823952456908E+00
  3.869839886391E+00  3.916277965027E+00  3.963273300608E+00  4.010832580215E+00
  4.058962571178E+00  4.107670122032E+00  4.156962163496E+00  4.206845709458E+00
  4.257327857972E+00  4.308415792267E+00  4.360116781774E+00  4.412438183156E+00
  4.465387441354E+00  4.518972090650E+00  4.573199755738E+00  4.628078152807E+00
  4.683615090640E+00  4.739818471728E+00  4.796696293389E+00  4.854256648909E+00
  4.912507728696E+00  4.971457821441E+00  5.031115315298E+00  5.091488699081E+00
  5.152586563470E+00  5.214417602232E+00  5.276990613459E+00  5.340314500820E+00
  5.404398274830E+00  5.469251054128E+00  5.534882066778E+00  5.601300651579E+00
  5.668516259398E+00  5.736538454511E+00  5.805376915965E+00  5.875041438956E+00
  5.945541936224E+00  6.016888439459E+00  6.089091100732E+00  6.162160193941E+00
  6.236106116268E+00  6.310939389663E+00  6.386670662339E+00  6.463310710287E+00
  6.540870438811E+00  6.619360884077E+00  6.698793214686E+00  6.779178733262E+00
  6.860528878061E+00  6.942855224598E+00  7.026169487293E+00  7.110483521140E+00
  7.195809323394E+00  7.282159035275E+00  7.369544943698E+00  7.457979483022E+00
  7.547475236819E+00  7.638044939660E+00  7.729701478936E+00  7.822457896684E+00
  7.916327391444E+00  8.011323320141E+00  8.107459199983E+00  8.204748710383E+00
  8.303205694907E+00  8.402844163246E+00  8.503678293205E+00  8.605722432724E+00
  8.708991101916E+00  8.813498995139E+00  8.919260983081E+00  9.026292114878E+00
  9.134607620256E+00  9.244222911700E+00  9.355153586640E+00  9.467415429680E+00
  9.581024414836E+00  9.695996707814E+00  9.812348668308E+00  9.930096852327E+00
  1.004925801456E+01  1.016984911073E+01  1.029188730006E+01  1.041538994766E+01
  1.054037462703E+01  1.066685912256E+01  1.079486143203E+01  1.092439976921E+01
  1.105549256644E+01  1.118815847724E+01  1.132241637897E+01  1.145828537551E+01
  1.159578480002E+01  1.173493421762E+01  1.187575342823E+01  1.201826246937E+01
  1.216248161900E+01  1.230843139843E+01  1.245613257521E+01  1.260560616611E+01
  1.275687344011E+01  1.290995592139E+01  1.306487539244E+01  1.322165389715E+01
  1.338031374392E+01  1.354087750885E+01  1.370336803895E+01  1.386780845542E+01
  1.403422215689E+01  1.420263282277E+01  1.437306441664E+01  1.454554118964E+01
  1.472008768392E+01  1.489672873612E+01  1.507548948096E+01  1.525639535473E+01
  1.543947209899E+01  1.562474576417E+01  1.581224271334E+01  1.600198962590E+01
  1.619401350141E+01  1.638834166343E+01  1.658500176339E+01  1.678402178455E+01
  1.698543004597E+01  1.718925520652E+01  1.739552626900E+01  1.760427258423E+01
  1.781552385524E+01  1.802931014150E+01  1.824566186320E+01  1.846460980556E+01
  1.868618512322E+01  1.891041934470E+01  1.913734437684E+01  1.936699250936E+01
  1.959939641947E+01  1.983458917651E+01  2.007260424662E+01  2.031347549758E+01
  2.055723720355E+01  2.080392405000E+01  2.105357113860E+01  2.130621399226E+01
  2.156188856017E+01  2.182063122289E+01  2.208247879756E+01  2.234746854313E+01
  2.261563816565E+01  2.288702582364E+01  2.316167013352E+01  2.343961017513E+01
  2.372088549723E+01  2.400553612319E+01  2.429360255667E+01  2.458512578735E+01
  2.488014729680E+01  2.517870906436E+01  2.548085357313E+01  2.578662381601E+01
  2.609606330180E+01  2.640921606143E+01  2.672612665416E+01  2.704684017401E+01
  2.737140225610E+01  2.769985908317E+01  2.803225739217E+01  2.836864448088E+01
  2.870906821465E+01  2.905357703323E+01  2.940221995762E+01  2.975504659712E+01
  3.011210715628E+01  3.047345244216E+01  3.083913387146E+01  3.120920347792E+01
  3.158371391965E+01  3.196271848669E+01  3.234627110853E+01  3.273442636183E+01
  3.312723947817E+01  3.352476635191E+01  3.392706354814E+01  3.433418831071E+01
  3.474619857044E+01  3.516315295329E+01  3.558511078873E+01  3.601213211819E+01
  3.644427770361E+01  3.688160903605E+01  3.732418834449E+01  3.777207860462E+01
  3.822534354788E+01  3.868404767045E+01  3.914825624250E+01  3.961803531741E+01
  4.009345174121E+01  4.057457316211E+01  4.106146804005E+01  4.155420565653E+01
  4.205285612441E+01  4.255749039791E+01  4.306818028268E+01  4.358499844607E+01
  4.410801842743E+01
</grid-data>
</grid>
<valence-charge total-charge="20" is-unscreening-charge="yes"
 rescaled-to-z-pseudo="no">
<radfunc>
<data npts="457">
  6.945784254781E+00  6.947646521579E+00  6.953213414900E+00  6.962500829715E+00
  6.975413372968E+00  6.992391743690E+00  7.014030040884E+00  7.038807175861E+00
  7.069578175001E+00  7.102845122652E+00  7.140340094992E+00  7.181091343465E+00
  7.230336889415E+00  7.281763064131E+00  7.333130369742E+00  7.392290309096E+00
  7.460404584344E+00  7.524959141221E+00  7.597517790583E+00  7.679047162795E+00
  7.770623405743E+00  7.851917552505E+00  7.941076599722E+00  8.038829497979E+00
  8.145965661223E+00  8.263338327902E+00  8.391867677780E+00  8.496179032866E+00
  8.607765358940E+00  8.727093763934E+00  8.854654601537E+00  8.990961402012E+00
  9.136550518010E+00  9.291980421848E+00  9.457830580057E+00  9.634699818934E+00
  9.823204081248E+00  1.002397345896E+01  1.016494963283E+01  1.031185282606E+01
  1.046487472773E+01  1.062420649834E+01  1.079003776873E+01  1.096255550011E+01
  1.114194269132E+01  1.132837691867E+01  1.152202869277E+01  1.172305961587E+01
  1.193162032241E+01  1.214784818477E+01  1.237186476559E+01  1.260377299776E+01
  1.284365407279E+01  1.309156401854E+01  1.334752994776E+01  1.361154595991E+01
  1.388356868006E+01  1.416351242122E+01  1.445124395921E+01  1.474657691329E+01
  1.504926573105E+01  1.535899928231E+01  1.567539407495E+01  1.599798711539E+01
  1.632622844795E+01  1.665947342149E+01  1.699697474785E+01  1.716705796692E+01
  1.733787443589E+01  1.750929828167E+01  1.768119570650E+01  1.785342474370E+01
  1.802583501895E+01  1.819826751863E+01  1.837055436688E+01  1.854251861325E+01
  1.871397403283E+01  1.888472494095E+01  1.905456602469E+01  1.922328219374E+01
  1.939064845291E+01  1.955642979925E+01  1.972038114651E+01  1.988224727995E+01
  2.004176284478E+01  2.019865237145E+01  2.035263034121E+01  2.050340129563E+01
  2.065065999369E+01  2.079409162012E+01  2.093337204906E+01  2.106816816674E+01
  2.119813825714E+01  2.132293245460E+01  2.144219326719E+01  2.155555617453E+01
  2.166265030386E+01  2.176309918757E+01  2.185652160560E+01  2.194253251540E+01
  2.202074407205E+01  2.209076674059E+01  2.215221050201E+01  2.220468615391E+01
  2.224780670592E+01  2.228118886952E+01  2.230445464057E+01  2.231723297247E+01
  2.231916153620E+01  2.230988856300E+01  2.228907476366E+01  2.225639531756E+01
  2.221154192297E+01  2.215422489883E+01  2.208417532681E+01  2.200114722098E+01
  2.190491971085E+01  2.179529922234E+01  2.167212163953E+01  2.153525442915E+01
  2.138459870799E+01  2.122009123293E+01  2.104170629194E+01  2.084945747388E+01
  2.064339929451E+01  2.042362865569E+01  2.019028611516E+01  1.994355694434E+01
  1.968367195280E+01  1.941090805862E+01  1.912558858601E+01  1.882808327278E+01
  1.851880797313E+01  1.819822404324E+01  1.786683740062E+01  1.752519725105E+01
  1.717389448061E+01  1.681355971378E+01  1.644486104279E+01  1.606850143672E+01
  1.568521584329E+01  1.529576799945E+01  1.490094697090E+01  1.450156344386E+01
  1.409844579510E+01  1.369243596941E+01  1.328438519534E+01  1.287514957196E+01
  1.246558556071E+01  1.205654541697E+01  1.164887259644E+01  1.124339717134E+01
  1.084093129094E+01  1.044226472044E+01  1.004816049130E+01  9.659350695321E+00
  9.276532453811E+00  8.900364092550E+00  8.531461552436E+00  8.170395065317E+00
  7.817686124047E+00  7.473804775589E+00  7.139167265612E+00  6.814134062653E+00
  6.499008289184E+00  6.194034585776E+00  5.899398432836E+00  5.615225951842E+00
  5.341584204677E+00  5.078482005339E+00  4.825871253045E+00  4.583649864809E+00
  4.351669680911E+00  4.129747388170E+00  3.917669485586E+00  3.715194540232E+00
  3.522057387455E+00  3.337972617179E+00  3.162638119934E+00  2.995739254288E+00
  2.836955526940E+00  2.685968217155E+00  2.542461671091E+00  2.406124562200E+00
  2.276650896718E+00  2.153740908740E+00  2.037101815489E+00  1.926448448926E+00
  1.821503773182E+00  1.721999295937E+00  1.627675383297E+00  1.538281486844E+00
  1.453576291338E+00  1.373327791219E+00  1.297313303701E+00  1.225319425826E+00
  1.157141942456E+00  1.092585691706E+00  1.031464393926E+00  9.736004498580E-01
  9.188247131668E-01  8.669762421133E-01  8.179020347047E-01  7.714567512537E-01
  7.275024278773E-01  6.859081840947E-01  6.465499273233E-01  6.093100567359E-01
  5.740771686266E-01  5.407457651411E-01  5.092159679513E-01  4.793932382085E-01
  4.511881038767E-01  4.245158953415E-01  3.992964900006E-01  3.754540663743E-01
  3.529168681216E-01  3.316169782164E-01  3.114901034188E-01  2.924753690767E-01
  2.745151242028E-01  2.575547566990E-01  2.415425185368E-01  2.264293606485E-01
  2.121687772449E-01  1.987166592386E-01  1.860311564287E-01  1.740725480830E-01
  1.628031215410E-01  1.521870584558E-01  1.421903282879E-01  1.327805886661E-01
  1.239270922359E-01  1.156005996211E-01  1.077732981340E-01  1.004187258803E-01
  9.351170091586E-02  8.702825512477E-02  8.094557250197E-02  7.524193153577E-02
  6.989665139788E-02  6.489004166363E-02  6.020335529921E-02  5.581874466138E-02
  5.171922027131E-02  4.788861213567E-02  4.431153340095E-02  4.097334613950E-02
  3.786012907814E-02  3.495864709322E-02  3.225632230791E-02  2.974120664078E-02
  2.740195566691E-02  2.522780366525E-02  2.320853973845E-02  2.133448490330E-02
  1.959647006170E-02  1.798581477320E-02  1.649430676111E-02  1.511418209409E-02
  1.383810599433E-02  1.265915423255E-02  1.157079507708E-02  1.056687177180E-02
  9.641585523387E-03  8.789478983638E-03  8.005420216821E-03  7.284587145717E-03
  6.622452472563E-03  6.014769073254E-03  5.457555864503E-03  4.947084144464E-03
  4.479864407603E-03  4.052633634437E-03  3.662343056207E-03  3.306146393719E-03
  2.981388568464E-03  2.685594882901E-03  2.416460665358E-03  2.171841373601E-03
  1.949743149665E-03  1.748313817121E-03  1.565834310678E-03  1.400710526782E-03
  1.251465582859E-03  1.116732471963E-03  9.952470988874E-04  8.858416833257E-04
  7.874385153268E-04  6.990440481679E-04  6.197433138152E-04  5.486946463113E-04
  4.851246987551E-04  4.283237399596E-04  3.776412173787E-04  3.324815734523E-04
  2.923003031220E-04  2.566002408813E-04  2.249280663370E-04  1.968710178510E-04
  1.720538043979E-04  1.501357063026E-04  1.308078560027E-04  1.137906904249E-04
  9.883156695117E-05  8.570253530355E-05  7.419825797904E-05  6.413407213788E-05
  5.534418608384E-05  4.768000368623E-05  4.100857028151E-05  3.521113376536E-05
  3.018181474709E-05  2.582637979328E-05  2.206111193890E-05  1.881177279621E-05
  1.601265074637E-05  1.360568985796E-05  1.153969434186E-05  9.769603523472E-06
  8.255832492239E-06  6.963673773197E-06  5.862755556878E-06  4.926552220144E-06
  4.131943071314E-06  3.458815456523E-06  2.889708569713E-06  2.409494514430E-06
  2.005093370576E-06  1.665219222083E-06  1.380154300998E-06  1.141548598604E-06
  9.422424839621E-07  7.761100537925E-07  6.379211142294E-07  5.232198640175E-07
  4.282185097670E-07  3.497041965679E-07  2.849577813532E-07  2.316831117945E-07
  1.879456001632E-07  1.521189995878E-07  1.228393996038E-07  9.896555905253E-08
  7.954478749989E-08  6.378367172844E-08  5.102302185344E-08  4.071648260845E-08
  3.241231972664E-08  2.573794952405E-08  2.038683218026E-08  1.610739622433E-08
  1.269370377638E-08  9.977603565789E-09  7.822152029846E-09  6.116112262102E-09
  4.769366577959E-09  3.709101329203E-09  2.876642640534E-09  2.224839250888E-09
  1.715903890225E-09  1.319637857411E-09  1.011974915062E-09  7.737904912650E-10
  5.899306650525E-10  4.484226834671E-10  3.398349668514E-10  2.567598434096E-10
  1.933967369182E-10  1.452173217568E-10  1.086973535167E-10  8.110256614786E-11
  6.031827224617E-11  4.471417649234E-11  3.303746971871E-11  2.432218562526E-11
  1.785056623586E-11  1.305611880769E-11  9.482628934018E-12  6.888755966095E-12
  4.986648183636E-12  3.596783123051E-12  2.584870799513E-12  1.850818064184E-12
  1.320291761529E-12  9.382922813791E-13  6.642765608302E-13  4.684708029131E-13
  3.290932371971E-13  2.302703262365E-13  1.604793264164E-13  1.113888088578E-13
  7.699887350948E-14  5.300615001273E-14  3.633671807929E-14  2.480395243556E-14
  1.685892071149E-14  1.140906352417E-14  7.687036970330E-15  5.156247974425E-15
  3.443113245166E-15  2.288695702355E-15  1.514329208919E-15  9.972958587232E-16
  6.536945790918E-16  4.264305266164E-16  2.768339241990E-16  1.788392048153E-16
  1.149616587403E-16  7.352996192619E-17  4.679188323804E-17  2.962409588612E-17
  1.865783255894E-17  1.168938681110E-17  7.284662415120E-18  4.515299559603E-18
  2.783524416906E-18  1.706500366485E-18  1.040379607224E-18  6.306991328355E-19
  3.801614773581E-19  2.278240692346E-19  1.357333354742E-19  8.038930675807E-20
  4.732645157468E-20  2.769313807900E-20  1.610538992246E-20  9.308271199763E-21
  5.346049233743E-21  3.050913661854E-21  1.729923167868E-21  0.000000000000E+00
  0.000000000000E+00  0.000000000000E+00  0.000000000000E+00  0.000000000000E+00
  0.000000000000E+00  0.000000000000E+00  0.000000000000E+00  0.000000000000E+00
  0.000000000000E+00  0.000000000000E+00  0.000000000000E+00  0.000000000000E+00
  0.000000000000E+00  0.000000000000E+00  0.000000000000E+00  0.000000000000E+00
  0.000000000000E+00  0.000000000000E+00  0.000000000000E+00  0.000000000000E+00
  0.000000000000E+00  0.000000000000E+00  0.000000000000E+00  0.000000000000E+00
  0.000000000000E+00
</data>
</radfunc>
</valence-charge>
<pseudocore-charge matching-radius="0.764087853819"
 number-of-continuous-derivatives="4">
<annotation model-charge-form="Teter function with specified parameters" />
<radfunc>
<data npts="290">
  1.155520040072E+02  1.155435522983E+02  1.155182877379E+02  1.154761392343E+02
  1.154175413885E+02  1.153404967416E+02  1.152423130050E+02  1.151298960227E+02
  1.149902976449E+02  1.148393925083E+02  1.146693285092E+02  1.144845190090E+02
  1.142612196128E+02  1.140280689924E+02  1.137952214504E+02  1.135270932134E+02
  1.132184366363E+02  1.129259626836E+02  1.125972822839E+02  1.122280339843E+02
  1.118133633775E+02  1.114453172698E+02  1.110417290300E+02  1.105993103145E+02
  1.101144987419E+02  1.095834415279E+02  1.090019796340E+02  1.085301224983E+02
  1.080253864891E+02  1.074856499728E+02  1.069086804502E+02  1.062921329459E+02
  1.056335491686E+02  1.049303576114E+02  1.041798747772E+02  1.033793077460E+02
  1.025257583218E+02  1.016162290288E+02  1.009772544472E+02  1.003110933274E+02
  9.961679586976E+01  9.889339999003E+01  9.813993358588E+01  9.735541712336E+01
  9.653886656912E+01  9.568929669535E+01  9.480572478512E+01  9.388717476626E+01
  9.293268180249E+01  9.194129737046E+01  9.091209485100E+01  8.984417566239E+01
  8.873667596196E+01  8.758877394085E+01  8.639969773404E+01  8.516873396463E+01
  8.389523693724E+01  8.257863849005E+01  8.121845850906E+01  7.981431610028E+01
  7.836594140671E+01  7.687318804659E+01  7.533604613727E+01  7.375465585472E+01
  7.212932146359E+01  7.046052573405E+01  6.874894464255E+01  6.787737731434E+01
  6.699546223085E+01  6.610334484738E+01  6.520118547430E+01  6.428915972954E+01
  6.336745898367E+01  6.243629079566E+01  6.149587933721E+01  6.054646580377E+01
  5.958830880974E+01  5.862168476571E+01  5.764688823498E+01  5.666423226706E+01
  5.567404870510E+01  5.467668846453E+01  5.367252177997E+01  5.266193841717E+01
  5.164534784685E+01  5.062317937712E+01  4.959588224112E+01  4.856392563631E+01
  4.752779871184E+01  4.648801050057E+01  4.544508979179E+01  4.439958494121E+01
  4.335206361439E+01  4.230311245997E+01  4.125333670904E+01  4.020335969715E+01
  3.915382230533E+01  3.810538231689E+01  3.705871368679E+01  3.601450572046E+01
  3.497346215939E+01  3.393630017091E+01  3.290374924004E+01  3.187654996146E+01
  3.085545273023E+01  2.984121633030E+01  2.883460642021E+01  2.783639391618E+01
  2.684735327321E+01  2.586826066550E+01  2.489989206837E+01  2.394302124424E+01
  2.299841763668E+01  2.206684417665E+01  2.114905500664E+01  2.024579312889E+01
  1.935778798513E+01  1.848575297633E+01  1.763038293172E+01  1.679235153772E+01
  1.597230873848E+01  1.517087812053E+01  1.438865429558E+01  1.362620029602E+01
  1.288404499933E+01  1.216268059793E+01  1.146256013240E+01  1.078409510664E+01
  1.012765320418E+01  9.493556125568E+00  8.882077567301E+00  8.293441362842E+00
  7.727819806606E+00  7.185332181632E+00  6.666043511375E+00  6.169963555557E+00
  5.697046069188E+00  5.247188342872E+00  4.820231041125E+00  4.415958353822E+00
  4.034098473969E+00  3.674324412710E+00  3.336255159972E+00  3.019457196258E+00
  2.723446357982E+00  2.447690055301E+00  2.191609837733E+00  1.954584298962E+00
  1.735952308149E+00  1.535016550867E+00  1.351047358459E+00  1.183286800325E+00
  1.030953009333E+00  8.932447064064E-01  7.693458863496E-01  6.584306233030E-01
  5.596679508654E-01  4.722267690713E-01  3.952807280726E-01  3.280130366791E-01
  2.696211429332E-01  2.193212336988E-01  1.763525009123E-01  1.399811237155E-01
  1.095039182158E-01  8.425161010684E-02  6.359168984526E-02  4.693081548006E-02
  3.371673452919E-02  2.343970341529E-02  1.563339080478E-02  9.875259611941E-03
  5.786431274714E-03  3.031044998044E-03  1.315133790456E-03  3.850480665560E-04
  2.546611783661E-05  5.703862449692E-05  3.337213515420E-04  7.398560115725E-04
  1.187063771115E-03  1.611018840911E-03  1.968170873778E-03  2.232484392441E-03
  2.392261133546E-03  2.447107032710E-03  2.405099663743E-03  2.280204425831E-03
  2.089978855739E-03  1.853594402652E-03  1.590194173637E-03  1.317593917995E-03
  1.051322283677E-03  8.039855808240E-04  5.849323576476E-04  4.001844417345E-04
  2.525940909409E-04  1.421818332736E-04  6.660667058074E-05  2.171969157729E-05
  2.153787454559E-06  1.905970243281E-06  1.487452326343E-05  3.532051637155E-05
  5.823165305393E-05  7.957546664963E-05  9.643799231938E-05  1.070526464629E-04
  1.107316144217E-04  1.077181189110E-04  9.898216003017E-05  8.598446299509E-05
  7.043337866977E-05  5.405745725754E-05  3.841262161514E-05  2.473771133309E-05
  1.386617067497E-05  6.195398033833E-06  1.709360836530E-06  4.506372166402E-08
  5.897966997914E-07  2.594094872172E-06  5.285142296380E-06  7.966882851683E-06
  1.009610180262E-05  1.132779046669E-05  1.152766464583E-05  1.075418596455E-05
  9.216267227421E-06  7.215557660450E-06  5.083490137714E-06  3.123022086471E-06
  1.563326323936E-06  5.329041238853E-07  5.317573123106E-08  0.000000000000E+00
  0.000000000000E+00  0.000000000000E+00  0.000000000000E+00  0.000000000000E+00
  0.000000000000E+00  0.000000000000E+00  0.000000000000E+00  0.000000000000E+00
  0.000000000000E+00  0.000000000000E+00  0.000000000000E+00  0.000000000000E+00
  0.000000000000E+00  0.000000000000E+00  0.000000000000E+00  0.000000000000E+00
  0.000000000000E+00  0.000000000000E+00  0.000000000000E+00  0.000000000000E+00
  0.000000000000E+00  0.000000000000E+00  0.000000000000E+00  0.000000000000E+00
  0.000000000000E+00  0.000000000000E+00  0.000000000000E+00  0.000000000000E+00
  0.000000000000E+00  0.000000000000E+00  0.000000000000E+00  0.000000000000E+00
  0.000000000000E+00  0.000000000000E+00  0.000000000000E+00  0.000000000000E+00
  0.000000000000E+00  0.000000000000E+00  0.000000000000E+00  0.000000000000E+00
  0.000000000000E+00  0.000000000000E+00  0.000000000000E+00  0.000000000000E+00
  0.000000000000E+00  0.000000000000E+00  0.000000000000E+00  0.000000000000E+00
  0.000000000000E+00  0.000000000000E+00  0.000000000000E+00  0.000000000000E+00
  0.000000000000E+00  0.000000000000E+00
</data>
</radfunc>
</pseudocore-charge>
<semilocal-potentials set="scalar_relativistic">
<slps n="5" l="s" rc="1.60079261207">
<radfunc>
<data npts="290">
 -1.958765561778E+01 -1.958809801377E+01 -1.958942028198E+01 -1.959162565654E+01
 -1.959469059371E+01 -1.959871838141E+01 -1.960384799533E+01 -1.960971668944E+01
 -1.961699763793E+01 -1.962485990346E+01 -1.963370989444E+01 -1.964331465242E+01
 -1.965490229280E+01 -1.966698072031E+01 -1.967902261805E+01 -1.969286328981E+01
 -1.970876181421E+01 -1.972379299508E+01 -1.974064567442E+01 -1.975952882383E+01
 -1.978067223510E+01 -1.979938280632E+01 -1.981984017193E+01 -1.984219352737E+01
 -1.986660189806E+01 -1.989323414311E+01 -1.992226878202E+01 -1.994573396446E+01
 -1.997073837888E+01 -1.999736695658E+01 -2.002570682726E+01 -2.005584693924E+01
 -2.008787758698E+01 -2.012188983275E+01 -2.015797480836E+01 -2.019622288151E+01
 -2.023672267034E+01 -2.027955988841E+01 -2.030945705578E+01 -2.034045218316E+01
 -2.037256667738E+01 -2.040582032546E+01 -2.044023102226E+01 -2.047581447456E+01
 -2.051258388033E+01 -2.055054958198E+01 -2.058971869260E+01 -2.063009469393E+01
 -2.067167700525E+01 -2.071446052215E+01 -2.075843512458E+01 -2.080358515330E+01
 -2.084988885446E+01 -2.089731779198E+01 -2.094583622763E+01 -2.099540046900E+01
 -2.104595818591E+01 -2.109744769603E+01 -2.114979722072E+01 -2.120292411292E+01
 -2.125673405869E+01 -2.131112025509E+01 -2.136596256721E+01 -2.142112666782E+01
 -2.147646316369E+01 -2.153180671324E+01 -2.158697514095E+01 -2.161443193378E+01
 -2.164176855443E+01 -2.166895710479E+01 -2.169596847115E+01 -2.172277229801E+01
 -2.174933696229E+01 -2.177562954813E+01 -2.180161582232E+01 -2.182726021044E+01
 -2.185252577372E+01 -2.187737418690E+01 -2.190176571698E+01 -2.192565920310E+01
 -2.194901203754E+01 -2.197178014810E+01 -2.199391798177E+01 -2.201537849002E+01
 -2.203611311561E+01 -2.205607178132E+01 -2.207520288039E+01 -2.209345326908E+01
 -2.211076826144E+01 -2.212709162623E+01 -2.214236558642E+01 -2.215653082124E+01
 -2.216952647095E+01 -2.218129014455E+01 -2.219175793057E+01 -2.220086441099E+01
 -2.220854267868E+01 -2.221472435827E+01 -2.221933963082E+01 -2.222231726234E+01
 -2.222358463632E+01 -2.222306779059E+01 -2.222069145844E+01 -2.221637911434E+01
 -2.221005302436E+01 -2.220163430144E+01 -2.219104296567E+01 -2.217819800975E+01
 -2.216301746974E+01 -2.214541850127E+01 -2.212531746135E+01 -2.210262999588E+01
 -2.207727113304E+01 -2.204915538269E+01 -2.201819684192E+01 -2.198430930682E+01
 -2.194740639075E+01 -2.190740164923E+01 -2.186420871156E+01 -2.181774141952E+01
 -2.176791397326E+01 -2.171464108476E+01 -2.165783813915E+01 -2.159742136428E+01
 -2.153330800896E+01 -2.146541653043E+01 -2.139366679163E+01 -2.131798026900E+01
 -2.123828027154E+01 -2.115449217199E+01 -2.106654365135E+01 -2.097436495742E+01
 -2.087788917907E+01 -2.077705253716E+01 -2.067179469382E+01 -2.056205908145E+01
 -2.044779325321E+01 -2.032894925664E+01 -2.020548403227E+01 -2.007735983908E+01
 -1.994454470886E+01 -1.980701293141E+01 -1.966474557290E+01 -1.951773102966E+01
 -1.936596561987E+01 -1.920945421618E+01 -1.904821092227E+01 -1.888225979741E+01
 -1.871163563367E+01 -1.853638479148E+01 -1.835656610089E+01 -1.817225183787E+01