<?xml version="1.0" encoding="UTF-8" ?>
<psml version="1.1" energy_unit="hartree" length_unit="bohr"
 uuid="3045a090-44bc-11e8-57df-ff84bccf7eab"
 xmlns="http://esl.cecam.org/PSML/ns/1.1">
<provenance creator="ONCVPSP-3.3.0+psml-3.3.0-73 (fully-relativistic)"
 date="2018-04-20">
<annotation action="semilocal-pseudopotential-generation"
 action-cont="projectors-generation" />
<input-file name="oncvpsp-input">
<![CDATA[# atsym z nc nv iexc psfile
V 23 3 4 4 both
# n l f
1 0 2.0
2 0 2.0
2 1 6.0
3 0 2.0
3 1 6.0
3 2 3.0
4 0 2.0
# lmax
2
# l rc ep ncon nbas qcut
0 1.3 0.0 4 8 9.0
1 1.3 0.0 4 7 9.0
2 1.65 0.0 4 8 9.0
# lloc lpopt rc5 dvloc0
4 5 1.2 0.0
# l nproj debl
0 2 1.0
1 2 1.5
2 2 1.5
# icmod fcfact
3 5 1.3
# epsh1 epsh2 depsh
-12.0 12.0 0.02
# rlmax drl
6.0 0.01
 0
]]>
</input-file>
</provenance>
<pseudo-atom-spec atomic-label="V" atomic-number="23" z-pseudo="13"
 flavor="Hamann&apos;s oncvpsp" relativity="dirac" spin-dft="no"
 core-corrections="yes">
<annotation pseudo-energy="-71.1641123433" />
<exchange-correlation>
<annotation oncvpsp-xc-code="4" oncvpsp-xc-type="GGA -- Perdew-Burke-Ernzerhof" />
<libxc-info number-of-functionals="2">
<functional name="Perdew, Burke &amp; Ernzerhof (GGA)" type="exchange" id="101" />
<functional name="Perdew, Burke &amp; Ernzerhof (GGA)" type="correlation"
 id="130" />
</libxc-info>
</exchange-correlation>
<valence-configuration total-valence-charge="13">
<shell n="3" l="s" occupation="2" />
<shell n="3" l="p" occupation="6" />
<shell n="3" l="d" occupation="3" />
<shell n="4" l="s" occupation="2" />
</valence-configuration>
</pseudo-atom-spec>
<grid npts="458">
<annotation type="sampled from oncvpsp log grid"
 recipe="r(i:1..N) = r1*exp(a*(i-1)) + r=0; resampled"
 recipe-cont="r1: scale; a: step" scale="0.217391304348E-04"
 step="0.119285708653E-01" delta="0.500000000000E-02" rmax="44.3717337047" />
<grid-data>
  0.000000000000E+00  5.006749579795E-03  1.012059644248E-02  1.518250849851E-02
  2.021509715797E-02  2.535744957628E-02  3.068977967623E-02  3.583772504718E-02
  4.086260699098E-02  4.603956332018E-02  5.125730973400E-02  5.638971612822E-02
  6.203603157331E-02  6.743845247288E-02  7.244203985812E-02  7.781686777164E-02
  8.359048035711E-02  8.872773260121E-02  9.418070692882E-02  9.996880679323E-02
  1.061126281332E-01  1.112984512452E-01  1.167377103696E-01  1.224427911608E-01
  1.284266845717E-01  1.347030164349E-01  1.412860784904E-01  1.464336570443E-01
  1.517687810751E-01  1.572982835637E-01  1.630292464419E-01  1.689690096628E-01
  1.751251806013E-01  1.815056437973E-01  1.881185710538E-01  1.949724319034E-01
  2.020760044548E-01  2.094383866365E-01  2.144950670434E-01  2.196738359421E-01
  2.249776410371E-01  2.304095012023E-01  2.359725081993E-01  2.416698284373E-01
  2.475047047751E-01  2.534804583672E-01  2.596004905540E-01  2.658682847979E-01
  2.722874086661E-01  2.788615158609E-01  2.855943482999E-01  2.924897382452E-01
  2.995516104854E-01  3.067839845690E-01  3.141909770924E-01  3.217768040433E-01
  3.295457832001E-01  3.375023365897E-01  3.456509930043E-01  3.539963905794E-01
  3.625432794336E-01  3.712965243722E-01  3.802611076567E-01  3.894421318399E-01
  3.988448226711E-01  4.084745320697E-01  4.183367411719E-01  4.233567820660E-01
  4.284370634508E-01  4.335783082122E-01  4.387812479108E-01  4.440466228857E-01
  4.493751823603E-01  4.547676845486E-01  4.602248967632E-01  4.657475955244E-01
  4.713365666707E-01  4.769926054707E-01  4.827165167364E-01  4.885091149372E-01
  4.943712243165E-01  5.003036790082E-01  5.063073231563E-01  5.123830110342E-01
  5.185316071666E-01  5.247539864526E-01  5.310510342901E-01  5.374236467015E-01
  5.438727304620E-01  5.503992032275E-01  5.570039936662E-01  5.636880415902E-01
  5.704522980893E-01  5.772977256664E-01  5.842252983744E-01  5.912360019549E-01
  5.983308339783E-01  6.055108039861E-01  6.127769336339E-01  6.201302568375E-01
  6.275718199196E-01  6.351026817586E-01  6.427239139397E-01  6.504366009070E-01
  6.582418401179E-01  6.661407421993E-01  6.741344311057E-01  6.822240442789E-01
  6.904107328103E-01  6.986956616040E-01  7.070800095433E-01  7.155649696578E-01
  7.241517492937E-01  7.328415702852E-01  7.416356691286E-01  7.505352971582E-01
  7.595417207241E-01  7.686562213727E-01  7.778800960292E-01  7.872146571816E-01
  7.966612330677E-01  8.062211678646E-01  8.158958218789E-01  8.256865717415E-01
  8.355948106024E-01  8.456219483296E-01  8.557694117096E-01  8.660386446501E-01
  8.764311083859E-01  8.869482816865E-01  8.975916610667E-01  9.083627609995E-01
  9.192631141315E-01  9.302942715011E-01  9.414578027591E-01  9.527552963922E-01
  9.641883599490E-01  9.757586202683E-01  9.874677237116E-01  9.993173363961E-01
  1.011309144433E+00  1.023444854166E+00  1.035726192416E+00  1.048154906725E+00
  1.060732765606E+00  1.073461558793E+00  1.086343097499E+00  1.099379214668E+00
  1.112571765245E+00  1.125922626427E+00  1.139433697945E+00  1.153106902320E+00
  1.166944185148E+00  1.180947515370E+00  1.195118885554E+00  1.209460312181E+00
  1.223973835927E+00  1.238661521958E+00  1.253525460221E+00  1.268567765744E+00
  1.283790578933E+00  1.299196065880E+00  1.314786418671E+00  1.330563855695E+00
  1.346530621963E+00  1.362688989427E+00  1.379041257300E+00  1.395589752387E+00
  1.412336829416E+00  1.429284871369E+00  1.446436289825E+00  1.463793525303E+00
  1.481359047607E+00  1.499135356178E+00  1.517124980452E+00  1.535330480218E+00
  1.553754445980E+00  1.572399499332E+00  1.591268293324E+00  1.610363512844E+00
  1.629687874998E+00  1.649244129498E+00  1.669035059052E+00  1.689063479761E+00
  1.709332241518E+00  1.729844228416E+00  1.750602359157E+00  1.771609587467E+00
  1.792868902517E+00  1.814383329347E+00  1.836155929299E+00  1.858189800451E+00
  1.880488078056E+00  1.903053934993E+00  1.925890582213E+00  1.949001269199E+00
  1.972389284430E+00  1.996057955843E+00  2.020010651313E+00  2.044250779129E+00
  2.068781788478E+00  2.093607169940E+00  2.118730455979E+00  2.144155221451E+00
  2.169885084108E+00  2.195923705118E+00  2.222274789579E+00  2.248942087054E+00
  2.275929392099E+00  2.303240544804E+00  2.330879431341E+00  2.358849984518E+00
  2.387156184332E+00  2.415802058544E+00  2.444791683246E+00  2.474129183445E+00
  2.503818733647E+00  2.533864558450E+00  2.564270933152E+00  2.595042184350E+00
  2.626182690562E+00  2.657696882848E+00  2.689589245443E+00  2.721864316388E+00
  2.754526688185E+00  2.787581008443E+00  2.821031980544E+00  2.854884364311E+00
  2.889142976682E+00  2.923812692403E+00  2.958898444711E+00  2.994405226048E+00
  3.030338088761E+00  3.066702145826E+00  3.103502571576E+00  3.140744602434E+00
  3.178433537664E+00  3.216574740116E+00  3.255173636997E+00  3.294235720641E+00
  3.333766549289E+00  3.373771747880E+00  3.414257008855E+00  3.455228092961E+00
  3.496690830077E+00  3.538651120037E+00  3.581114933478E+00  3.624088312680E+00
  3.667577372432E+00  3.711588300901E+00  3.756127360512E+00  3.801200888838E+00
  3.846815299504E+00  3.892977083098E+00  3.939692808095E+00  3.986969121792E+00
  4.034812751254E+00  4.083230504269E+00  4.132229270320E+00  4.181816021564E+00
  4.231997813823E+00  4.282781787589E+00  4.334175169040E+00  4.386185271068E+00
  4.438819494321E+00  4.492085328253E+00  4.545990352192E+00  4.600542236418E+00
  4.655748743255E+00  4.711617728174E+00  4.768157140912E+00  4.825375026603E+00
  4.883279526922E+00  4.941878881246E+00  5.001181427821E+00  5.061195604954E+00
  5.121929952214E+00  5.183393111640E+00  5.245593828980E+00  5.308540954928E+00
  5.372243446387E+00  5.436710367744E+00  5.501950892157E+00  5.567974302862E+00
  5.634789994497E+00  5.702407474431E+00  5.770836364124E+00  5.840086400493E+00
  5.910167437299E+00  5.981089446547E+00  6.052862519905E+00  6.125496870144E+00
  6.199002832586E+00  6.273390866577E+00  6.348671556976E+00  6.424855615660E+00
  6.501953883048E+00  6.579977329644E+00  6.658937057600E+00  6.738844302291E+00
  6.819710433919E+00  6.901546959126E+00  6.984365522635E+00  7.068177908907E+00
  7.152996043814E+00  7.238831996339E+00  7.325697980295E+00  7.413606356059E+00
  7.502569632332E+00  7.592600467920E+00  7.683711673535E+00  7.775916213617E+00
  7.869227208181E+00  7.963657934679E+00  8.059221829895E+00  8.155932491854E+00
  8.253803681756E+00  8.352849325937E+00  8.453083517848E+00  8.554520520062E+00
  8.657174766303E+00  8.761060863499E+00  8.866193593861E+00  8.972587916987E+00
  9.080258971991E+00  9.189222079655E+00  9.299492744611E+00  9.411086657546E+00
  9.524019697437E+00  9.638307933806E+00  9.753967629011E+00  9.871015240560E+00
  9.989467423446E+00  1.010934103253E+01  1.023065312492E+01  1.035342096242E+01
  1.047766201397E+01  1.060339395813E+01  1.073063468563E+01  1.085940230186E+01
  1.098971512948E+01  1.112159171103E+01  1.125505081157E+01  1.139011142131E+01
  1.152679275836E+01  1.166511427146E+01  1.180509564272E+01  1.194675679043E+01
  1.209011787192E+01  1.223519928638E+01  1.238202167782E+01  1.253060593795E+01
  1.268097320921E+01  1.283314488772E+01  1.298714262637E+01  1.314298833789E+01
  1.330070419794E+01  1.346031264832E+01  1.362183640010E+01  1.378529843690E+01
  1.395072201814E+01  1.411813068236E+01  1.428754825055E+01  1.445899882955E+01
  1.463250681551E+01  1.480809689729E+01  1.498579406006E+01  1.516562358878E+01
  1.534761107185E+01  1.553178240471E+01  1.571816379356E+01  1.590678175909E+01
  1.609766314020E+01  1.629083509788E+01  1.648632511905E+01  1.668416102048E+01
  1.688437095273E+01  1.708698340416E+01  1.729202720501E+01  1.749953153147E+01
  1.770952590985E+01  1.792204022077E+01  1.813710470342E+01  1.835474995986E+01
  1.857500695938E+01  1.879790704289E+01  1.902348192740E+01  1.925176371053E+01
  1.948278487506E+01  1.971657829356E+01  1.995317723308E+01  2.019261535988E+01
  2.043492674420E+01  2.068014586513E+01  2.092830761551E+01  2.117944730689E+01
  2.143360067458E+01  2.169080388267E+01  2.195109352926E+01  2.221450665162E+01
  2.248108073143E+01  2.275085370021E+01  2.302386394461E+01  2.330015031195E+01
  2.357975211569E+01  2.386270914108E+01  2.414906165077E+01  2.443885039058E+01
  2.473211659527E+01  2.502890199441E+01  2.532924881835E+01  2.563319980417E+01
  2.594079820182E+01  2.625208778024E+01  2.656711283360E+01  2.688591818760E+01
  2.720854920586E+01  2.753505179633E+01  2.786547241788E+01  2.819985808690E+01
  2.853825638394E+01  2.888071546055E+01  2.922728404607E+01  2.957801145463E+01
  2.993294759208E+01  3.029214296319E+01  3.065564867875E+01  3.102351646289E+01
  3.139579866044E+01  3.177254824437E+01  3.215381882330E+01  3.253966464918E+01
  3.293014062497E+01  3.332530231247E+01  3.372520594022E+01  3.412990841150E+01
  3.453946731244E+01  3.495394092019E+01  3.537338821123E+01  3.579786886977E+01
  3.622744329621E+01  3.666217261576E+01  3.710211868715E+01  3.754734411140E+01
  3.799791224073E+01  3.845388718762E+01  3.891533383387E+01  3.938231783988E+01
  3.985490565396E+01  4.033316452181E+01  4.081716249607E+01  4.130696844602E+01
  4.180265206737E+01  4.230428389218E+01  4.281193529889E+01  4.332567852247E+01
  4.384558666474E+01  4.437173370472E+01
</grid-data>
</grid>
<valence-charge total-charge="13" is-unscreening-charge="yes"
 rescaled-to-z-pseudo="no">
<radfunc>
<data npts="458">
  2.740867101756E+00  2.743930772777E+00  2.753383389008E+00  2.769027567051E+00
  2.790772868722E+00  2.819355954901E+00  2.855768782863E+00  2.897442633340E+00
  2.944272310132E+00  2.998845422643E+00  3.060309819133E+00  3.127058427644E+00
  3.207645523655E+00  3.291713574719E+00  3.375595970812E+00  3.472092705355E+00
  3.583047527689E+00  3.688057676168E+00  3.805917839004E+00  3.938134036091E+00
  4.086370386393E+00  4.217720137141E+00  4.361513976352E+00  4.518849774977E+00
  4.690904460617E+00  4.878935553794E+00  5.084281562130E+00  5.250504295058E+00
  5.427889874927E+00  5.617088377957E+00  5.818771246989E+00  6.033628902749E+00
  6.262367613294E+00  6.505705493439E+00  6.764367489142E+00  7.039079183763E+00
  7.330559243925E+00  7.639510302893E+00  7.855518948119E+00  8.079784569046E+00
  8.312488348880E+00  8.553799528560E+00  8.803873010470E+00  9.062846712284E+00
  9.330838653960E+00  9.607943760999E+00  9.894230367509E+00  1.018973640340E+01
  1.049446525128E+01  1.080838126047E+01  1.113140490797E+01  1.146340759951E+01
  1.180420610801E+01  1.215355665180E+01  1.251114862165E+01  1.287659797329E+01
  1.324944031125E+01  1.362912370126E+01  1.401500126100E+01  1.440632359408E+01
  1.480223114911E+01  1.520174660524E+01  1.560376740690E+01  1.600705859475E+01
  1.641024610573E+01  1.681181074317E+01  1.721008304797E+01  1.740742077763E+01
  1.760323933188E+01  1.779728623831E+01  1.798929916573E+01  1.817900594816E+01
  1.836612464505E+01  1.855036364046E+01  1.873142178439E+01  1.890898857944E+01
  1.908274441586E+01  1.925236085828E+01  1.941750098726E+01  1.957781979899E+01
  1.973296466609E+01  1.988257586279E+01  2.002628715733E+01  2.016372647447E+01
  2.029451663068E+01  2.041827614456E+01  2.053462012446E+01  2.064316123522E+01
  2.074351074551E+01  2.083527965662E+01  2.091807991337E+01  2.099152569710E+01
  2.105523479995E+01  2.110883007934E+01  2.115194099048E+01  2.118420519401E+01
  2.120527023532E+01  2.121479529066E+01  2.121245297473E+01  2.119793120297E+01
  2.117093510105E+01  2.113118895283E+01  2.107843817686E+01  2.101245132059E+01
  2.093302206005E+01  2.083997119192E+01  2.073314860358E+01  2.061243520584E+01
  2.047774481202E+01  2.032902594601E+01  2.016626356154E+01  1.998948065362E+01
  1.979873974321E+01  1.959414421533E+01  1.937583949108E+01  1.914401401369E+01
  1.889890002940E+01  1.864077414433E+01  1.836995763930E+01  1.808681652593E+01
  1.779176132841E+01  1.748524657743E+01  1.716777000465E+01  1.683987142831E+01
  1.650213132361E+01  1.615516907395E+01  1.579964090278E+01  1.543623748894E+01
  1.506568127211E+01  1.468872345871E+01  1.430614074270E+01  1.391873175921E+01
  1.352731329336E+01  1.313271627004E+01  1.273578155436E+01  1.233735559581E+01
  1.193828595223E+01  1.153941673273E+01  1.114158400068E+01  1.074561117996E+01
  1.035230450880E+01  9.962448586177E+00  9.576802055674E+00  9.196093471106E+00
  8.821017386640E+00  8.452230712171E+00  8.090349371878E+00  7.735945300456E+00
  7.389543807537E+00  7.051621336278E+00  6.722603637125E+00  6.402864372459E+00
  6.092724162321E+00  5.792450075731E+00  5.502255566531E+00  5.222300847163E+00
  4.952693688576E+00  4.693490629305E+00  4.444698571419E+00  4.206276736769E+00
  3.978138955187E+00  3.760156254661E+00  3.552159721698E+00  3.353944385461E+00
  3.165276483506E+00  2.985902928231E+00  2.815553985731E+00  2.653945933478E+00
  2.500783665526E+00  2.355763248626E+00  2.218574399996E+00  2.088902877175E+00
  1.966432767316E+00  1.850848663234E+00  1.741837712849E+00  1.639091527643E+00
  1.542307934622E+00  1.451192555095E+00  1.365460192722E+00  1.284836012855E+00
  1.209056495595E+00  1.137870146311E+00  1.071037949916E+00  1.008333096053E+00
  9.495386269959E-01  8.944439169988E-01  8.428449805379E-01  7.945446757172E-01
  7.493528877894E-01  7.070866650153E-01  6.675703098731E-01  6.306354286832E-01
  5.961209427486E-01  5.638730641285E-01  5.337452391710E-01  5.055980629148E-01
  4.792991674508E-01  4.547230872885E-01  4.317511047149E-01  4.102710780480E-01
  3.901772555793E-01  3.713700778614E-01  3.537559708260E-01  3.372471320201E-01
  3.217613120176E-01  3.072215928227E-01  2.935561648202E-01  2.806981035772E-01
  2.685851475609E-01  2.571594776248E-01  2.463674989418E-01  2.361596259250E-01
  2.264900705843E-01  2.173166347103E-01  2.086005062468E-01  2.003060602076E-01
  1.924006644949E-01  1.848544909769E-01  1.776403321843E-01  1.707334239677E-01
  1.641112744377E-01  1.577534994699E-01  1.516416650151E-01  1.457591363993E-01
  1.400909347455E-01  1.346236005893E-01  1.293450647074E-01  1.242445261263E-01
  1.193123372304E-01  1.145398958499E-01  1.099195441731E-01  1.054444742970E-01
  1.011086402104E-01  9.690667598102E-02  9.283381990770E-02  8.888584438731E-02
  8.505899123977E-02  8.134991223173E-02  7.775561453798E-02  7.427341088133E-02
  7.090087409444E-02  6.763579585180E-02  6.447614932578E-02  6.142005552791E-02
  5.846575310423E-02  5.561157136254E-02  5.285590631877E-02  5.019719955956E-02
  4.763391972878E-02  4.516454645600E-02  4.278755655559E-02  4.050141233577E-02
  3.830455186659E-02  3.619538106553E-02  3.417226746787E-02  3.223353555689E-02
  3.037746353521E-02  2.860228142432E-02  2.690617038345E-02  2.528726314206E-02
  2.374364544207E-02  2.227335839114E-02  2.087440161378E-02  1.954473711555E-02
  1.828229374900E-02  1.708497218393E-02  1.595065028290E-02  1.487718878511E-02
  1.386243720404E-02  1.290423984839E-02  1.200044188016E-02  1.114889532941E-02
  1.034746499185E-02  9.594034142233E-03  8.886510004724E-03  8.222828929141E-03
  7.600961230547E-03  7.018915657908E-03  6.474743465717E-03  5.966542070378E-03
  5.492458280506E-03  5.050691097222E-03  4.639494086704E-03  4.257177332822E-03
  3.902108982510E-03  3.572716400635E-03  3.267486954485E-03  2.984968450711E-03
  2.723769249569E-03  2.482558082709E-03  2.260063601622E-03  2.055073684146E-03
  1.866434526327E-03  1.693049546382E-03  1.533878126620E-03  1.387934218014E-03
  1.254284830732E-03  1.132048432299E-03  1.020393273398E-03  9.185356594901E-04
  8.257381846047E-04  7.413079418370E-04  6.645947232875E-04  5.949892204836E-04
  5.319212347178E-04  4.748579052562E-04  4.233019620382E-04  3.767900082997E-04
  3.348908375219E-04  2.972037882247E-04  2.633571393876E-04  2.330065486784E-04
  2.058335351847E-04  1.815440079607E-04  1.598668414088E-04  1.405524982842E-04
  1.233717009411E-04  1.081141512950E-04  9.458729986782E-05  8.261516417775E-05
  7.203719664077E-05  6.270720205224E-05  5.449230461199E-05  4.727196434289E-05
  4.093704262997E-05  3.538891647598E-05  3.053864093081E-05  2.630615900947E-05
  2.261955826891E-05  1.941437307090E-05  1.663293141992E-05  1.422374513363E-05
  1.214094198231E-05  1.034373832460E-05  8.795950671173E-06  7.465544527678E-06
  6.324218803778E-06  5.347024026421E-06  4.512012563302E-06  3.799919045763E-06
  3.193869178715E-06  2.679115137577E-06  2.242795777443E-06  1.873719916572E-06
  1.562171003319E-06  1.299731531474E-06  1.079125632135E-06  8.940783393216E-07
  7.391901002172E-07  6.098251778458E-07  5.020126730560E-07  4.123589727192E-07
  3.379705111495E-07  2.763858110239E-07  2.255158477974E-07  1.835918571378E-07
  1.491197777380E-07  1.208405915797E-07  9.769589001554E-08  7.879805666874E-08
  6.340451696995E-08  5.089555912485E-08  4.075528233765E-08  3.255527514090E-08
  2.594067033869E-08  2.061826586834E-08  1.634641532836E-08  1.292649894756E-08
  1.019567006373E-08  8.020752915566E-09  6.293130566408E-09  4.924454239875E-09
  3.843054404168E-09  2.990949663983E-09  2.321360980459E-09  1.796651622248E-09
  1.367607156489E-09  1.052748402465E-09  8.080409945471E-10  6.184059689957E-10
  4.718794966081E-10  3.589972833915E-10  2.722946335637E-10  2.059016813629E-10
  1.552166831926E-10  1.166431345195E-10  8.737890556258E-11  6.524763729352E-11
  4.856435861432E-11  3.602872425966E-11  2.664047252577E-11  1.963269853593E-11
  1.441936378750E-11  1.055414326899E-11  7.698270766236E-12  5.595501013346E-12
  4.052681061487E-12  2.924727037247E-12  2.103048509522E-12  1.506661215194E-12
  1.075388483775E-12  7.646795023211E-13  5.416745159720E-13  3.822280806901E-13
  2.686656213837E-13  1.880991203394E-13  1.311674792866E-13  9.109816829128E-14
  6.301098138781E-14  4.340350177215E-14  2.977239394280E-14  2.033580985639E-14
  1.383075579126E-14  9.365798335211E-15  6.314450864999E-15  4.238336560099E-15
  2.832052157342E-15  1.883777534649E-15  1.247259599573E-15  8.219757394746E-16
  5.391526937788E-16  3.519578292913E-16  2.286497272940E-16  1.478178159094E-16
  9.508968981728E-17  6.086460985771E-17  3.876099312078E-17  2.455823620556E-17
  1.547906746521E-17  9.705340445033E-18  6.052961726181E-18  3.754815440046E-18
  2.316566212509E-18  1.421372471431E-18  8.672601737813E-19  5.261870349692E-19
  3.174319844953E-19  1.903931137767E-19  1.135302647716E-19  6.729788462814E-20
  3.965424107384E-20  2.322443104133E-20  1.351873647469E-20  7.820430881921E-21
  4.495690602865E-21  2.568032385650E-21  1.457503858923E-21  8.218459750200E-22
  4.603716559054E-22  2.561707820703E-22  1.415853461936E-22  7.772123582379E-23
  0.000000000000E+00  0.000000000000E+00  0.000000000000E+00  0.000000000000E+00
  0.000000000000E+00  0.000000000000E+00
</data>
</radfunc>
</valence-charge>
<pseudocore-charge matching-radius="0.500303679008"
 number-of-continuous-derivatives="4">
<annotation model-charge-form="Teter function with specified parameters" />
<radfunc>
<data npts="291">
  1.050616256887E+02  1.050419568704E+02  1.049812802438E+02  1.048808909615E+02
  1.047414150751E+02  1.045581952950E+02  1.043249739190E+02  1.040583139048E+02
  1.037589911500E+02  1.034106119423E+02  1.030188039154E+02  1.025939862194E+02
  1.020820290011E+02  1.015490456270E+02  1.010183443055E+02  1.004091979573E+02
  9.971058106619E+01  9.905116126994E+01  9.831309015387E+01  9.748768039055E+01
  9.656547095382E+01  9.575114509644E+01  9.486270725684E+01  9.389422481861E+01
  9.283946051774E+01  9.169189533856E+01  9.044476262215E+01  8.943988682580E+01
  8.837209542424E+01  8.723837086132E+01  8.603569370458E+01  8.476106958162E+01
  8.341156076252E+01  8.198432283184E+01  8.047664688448E+01  7.888600765454E+01
  7.721011794054E+01  7.544698961944E+01  7.422228692381E+01  7.295770725807E+01
  7.165297364531E+01  7.030791790508E+01  6.892249233839E+01  6.749678191494E+01
  6.603101690757E+01  6.452558590328E+01  6.298104910248E+01  6.139815179895E+01
  5.977783791146E+01  5.812126341480E+01  5.642980949322E+01  5.470509521244E+01
  5.294898947901E+01  5.116362202666E+01  4.935139314059E+01  4.751498180148E+01
  4.565735190346E+01  4.378175617452E+01  4.189173740510E+01  3.999112657309E+01
  3.808403744124E+01  3.617485719959E+01  3.426823273110E+01  3.236905209695E+01
  3.048242087009E+01  2.861363299406E+01  2.676813591145E+01  2.585585580500E+01
  2.495148979432E+01  2.405574284868E+01  2.316932081927E+01  2.229292866023E+01
  2.142726856393E+01  2.057303801397E+01  1.973092776033E+01  1.890161972200E+01
  1.808578482318E+01  1.728408077009E+01  1.649714977655E+01  1.572561624708E+01
  1.497008442772E+01  1.423113603537E+01  1.350932787765E+01  1.280518947621E+01
  1.211922070739E+01  1.145188947485E+01  1.080362943012E+01  1.017483775720E+01
  9.565873038580E+00  8.977053220361E+00  8.408653694814E+00  7.860905518969E+00
  7.333993788148E+00  6.828056183325E+00  6.343181711101E+00  5.879409654712E+00
  5.436728753929E+00  5.015076630907E+00  4.614339477964E+00  4.234352021971E+00
  3.874897778427E+00  3.535709606432E+00  3.216470573596E+00  2.916815137526E+00
  2.636330647802E+00  2.374559169406E+00  2.130999625356E+00  1.905110252889E+00
  1.696311363914E+00  1.503988396701E+00  1.327495241909E+00  1.166157822131E+00
  1.019277900200E+00  8.861370876640E-01  7.660010210880E-01  6.581236703303E-01
  5.617517397135E-01  4.761291201248E-01  4.005013476674E-01  3.341200225800E-01
  2.762471408514E-01  2.261592903425E-01  1.831516633511E-01  1.465418384884E-01
  1.156732865028E-01  8.991855732761E-02  6.868210915844E-02  5.140274475893E-02
  3.755562543966E-02  2.665383918390E-02  1.824950613610E-02  1.193441201723E-02
  7.340167856693E-03  4.137902581860E-03  2.037503308188E-03  7.864264328244E-04
  1.681106449272E-04  3.050984281635E-08  1.314361414131E-04  4.408304307997E-04
  8.332401462473E-04  1.237340771022E-03  1.602497049316E-03  1.895781741746E-03
  2.099033977060E-03  2.206015799962E-03  2.219721088482E-03  2.149885040485E-03
  2.010735061887E-03  1.819015344039E-03  1.592307965858E-03  1.347663318463E-03
  1.100542386106E-03  8.640633122374E-04  6.485351286931E-04  4.612529157202E-04
  3.065213496844E-04  1.858678951291E-04  9.840305336161E-05  4.128325257100E-05
  1.023221942894E-05  7.896800377192E-08  5.274728120846E-06  2.035695524272E-05
  4.033566462570E-05  6.098528210989E-05  7.903351549273E-05  9.224691137981E-05
  9.942026768456E-05  1.002834593066E-04  9.534411882602E-05  8.568771803981E-05
  7.275777466220E-05  5.813816351566E-05  4.335699594994E-05  2.972753993338E-05
  1.823660118463E-05  9.485173840200E-06  3.680540708813E-06  6.738935131580E-07
  3.342832636109E-08  1.140118364151E-06  3.292195840381E-06  5.804834723541E-06
  8.093485234863E-06  9.732470315689E-06  1.048438181577E-05  1.029999432376E-05
  9.292311504983E-06  7.691485193180E-06  5.789324746024E-06  3.882730053316E-06
  2.224616770881E-06  9.889354760200E-07  2.535690700416E-07  1.697331908589E-09
  0.000000000000E+00  0.000000000000E+00  0.000000000000E+00  0.000000000000E+00
  0.000000000000E+00  0.000000000000E+00  0.000000000000E+00  0.000000000000E+00
  0.000000000000E+00  0.000000000000E+00  0.000000000000E+00  0.000000000000E+00
  0.000000000000E+00  0.000000000000E+00  0.000000000000E+00  0.000000000000E+00
  0.000000000000E+00  0.000000000000E+00  0.000000000000E+00  0.000000000000E+00
  0.000000000000E+00  0.000000000000E+00  0.000000000000E+00  0.000000000000E+00
  0.000000000000E+00  0.000000000000E+00  0.000000000000E+00  0.000000000000E+00
  0.000000000000E+00  0.000000000000E+00  0.000000000000E+00  0.000000000000E+00
  0.000000000000E+00  0.000000000000E+00  0.000000000000E+00  0.000000000000E+00
  0.000000000000E+00  0.000000000000E+00  0.000000000000E+00  0.000000000000E+00
  0.000000000000E+00  0.000000000000E+00  0.000000000000E+00  0.000000000000E+00
  0.000000000000E+00  0.000000000000E+00  0.000000000000E+00  0.000000000000E+00
  0.000000000000E+00  0.000000000000E+00  0.000000000000E+00  0.000000000000E+00
  0.000000000000E+00  0.000000000000E+00  0.000000000000E+00  0.000000000000E+00
  0.000000000000E+00  0.000000000000E+00  0.000000000000E+00  0.000000000000E+00
  0.000000000000E+00  0.000000000000E+00  0.000000000000E+00  0.000000000000E+00
  0.000000000000E+00  0.000000000000E+00  0.000000000000E+00  0.000000000000E+00
  0.000000000000E+00  0.000000000000E+00  0.000000000000E+00  0.000000000000E+00
  0.000000000000E+00  0.000000000000E+00  0.000000000000E+00  0.000000000000E+00
  0.000000000000E+00  0.000000000000E+00  0.000000000000E+00  0.000000000000E+00
  0.000000000000E+00  0.000000000000E+00  0.000000000000E+00  0.000000000000E+00
  0.000000000000E+00  0.000000000000E+00  0.000000000000E+00  0.000000000000E+00
  0.000000000000E+00  0.000000000000E+00  0.000000000000E+00  0.000000000000E+00
  0.000000000000E+00  0.000000000000E+00  0.000000000000E+00
</data>
</radfunc>
</pseudocore-charge>
<semilocal-potentials set="scalar_relativistic">
<slps n="3" l="s" rc="1.31478641867">
<radfunc>
<data npts="291">
 -4.745407397692E+00 -4.747820243461E+00 -4.755262195444E+00 -4.767572032426E+00
 -4.784668987468E+00 -4.807117995598E+00 -4.835676933713E+00 -4.868307946310E+00
 -4.904907178357E+00 -4.947466576945E+00 -4.995282530319E+00 -5.047068660740E+00
 -5.109396965414E+00 -5.174192212847E+00 -5.238616288165E+00 -5.312448380071E+00
 -5.396974626406E+00 -5.476612020531E+00 -5.565580540717E+00 -5.664868904432E+00
 -5.775543428879E+00 -5.873046491510E+00 -5.979185474508E+00 -6.094607018117E+00
 -6.219982503232E+00 -6.356003862795E+00 -6.503378066382E+00 -6.621789056441E+00
 -6.747290016984E+00 -6.880180094668E+00 -7.020752928616E+00 -7.169293419657E+00
 -7.326074086988E+00 -7.491350994758E+00 -7.665359235910E+00 -7.848307966199E+00
 -8.040374988276E+00 -8.241700893477E+00 -8.381111925282E+00 -8.524698866953E+00
 -8.672467557255E+00 -8.824412057548E+00 -8.980513674437E+00 -9.140739959151E+00
 -9.305043687408E+00 -9.473361823732E+00 -9.645614474536E+00 -9.821703834547E+00
 -1.000151313125E+01 -1.018490557232E+01 -1.037172330088E+01 -1.056178636371E+01
 -1.075489169722E+01 -1.095081213615E+01 -1.114929544965E+01 -1.135006340920E+01
 -1.155281089298E+01 -1.175720503045E+01 -1.196288439155E+01 -1.216945822459E+01
 -1.237650574723E+01 -1.258357549642E+01 -1.279018474490E+01 -1.299581899613E+01
 -1.319993157621E+01 -1.340194335236E+01 -1.360124262534E+01 -1.369967503979E+01
 -1.379718526856E+01 -1.389368780981E+01 -1.398909522335E+01 -1.408331817720E+01
 -1.417626550748E+01 -1.426784429365E+01 -1.435795995194E+01 -1.444651634942E+01
 -1.453341594153E+01 -1.461855993581E+01 -1.470184848438E+01 -1.478318090720E+01
 -1.486245594778E+01 -1.493957206168E+01 -1.501442773734E+01 -1.508692184675E+01
 -1.515695402195E+01 -1.522442505110E+01 -1.528923728539E+01 -1.535129504625E+01
 -1.541050501976E+01 -1.546677662402E+01 -1.552002233401E+01 -1.557015794907E+01
 -1.561710278885E+01 -1.566077980708E+01 -1.570111561572E+01 -1.573804041795E+01
 -1.577148785416E+01 -1.580139477143E+01 -1.582770093343E+01 -1.585034869228E+01
 -1.586928264810E+01 -1.588444932299E+01 -1.589579687579E+01 -1.590327488121E+01
 -1.590683419185E+01 -1.590642689591E+01 -1.590200637651E+01 -1.589352747183E+01
 -1.588094672904E+01 -1.586422273993E+01 -1.584331654184E+01 -1.581819206494E+01
 -1.578881660495E+01 -1.575516129959E+01 -1.571720158715E+01 -1.567491762599E+01
 -1.562829465545E+01 -1.557732328063E+01 -1.552199966652E+01 -1.546232563139E+01
 -1.539830863416E+01 -1.532996165637E+01 -1.525730298646E+01 -1.518035592010E+01
 -1.509914839758E+01 -1.501371260403E+01 -1.492408456343E+01 -1.483030375937E+01
 -1.473241281709E+01 -1.463045728026E+01 -1.452448551421E+01 -1.441454876378E+01
 -1.430070139060E+01 -1.418300131033E+01 -1.406151064663E+01 -1.393629661543E+01
 -1.380743264976E+01 -1.367499977359E+01 -1.353908823037E+01 -1.339979937053E+01
 -1.325724779945E+01 -1.311156378476E+01 -1.296289591775E+01 -1.281141401829E+01
 -1.265731226583E+01 -1.250081252987E+01 -1.234216786264E+01 -1.218166610303E+01
 -1.201963352597E+01 -1.185643845396E+01 -1.169249472831E+01 -1.152826491814E+01