<?xml version="1.0" encoding="UTF-8" ?>
<psml version="1.1" energy_unit="hartree" length_unit="bohr"
 uuid="33914e50-471b-11e8-5687-0ef78bc75216"
 xmlns="http://esl.cecam.org/PSML/ns/1.1">
<provenance creator="ONCVPSP-3.3.0+psml-3.3.0-73 (fully-relativistic)"
 date="2018-04-23">
<annotation action="semilocal-pseudopotential-generation"
 action-cont="projectors-generation" />
<input-file name="oncvpsp-input">
<![CDATA[# atsym z nc nv iexc psfile
Po 84 12 3 4 both
# n l f
1 0 2.0
2 0 2.0
2 1 6.0
3 0 2.0
3 1 6.0
3 2 10.0
4 0 2.0
4 1 6.0
4 2 10.0
5 0 2.0
5 1 6.0
4 3 14.0
5 2 10.0
6 0 2.0
6 1 4.0
# lmax
2
# l rc ep ncon nbas qcut
0 2.2 0.0 4 7 3.6
1 2.2 0.0 4 8 4.6
2 1.9 0.0 4 8 8.0
# lloc lpopt rc5 dvloc0
4 5 1.9 0.0
# l nproj debl
0 2 1.7
1 2 2.5
2 2 2.5
# icmod fcfact
3 6 1.34
# epsh1 epsh2 depsh
-12.0 12.0 0.02
# rlmax drl
6.0 0.01
 0
]]>
</input-file>
</provenance>
<pseudo-atom-spec atomic-label="Po" atomic-number="84" z-pseudo="16"
 flavor="Hamann&apos;s oncvpsp" relativity="dirac" spin-dft="no"
 core-corrections="yes">
<annotation pseudo-energy="-82.8682484463" />
<exchange-correlation>
<annotation oncvpsp-xc-code="4" oncvpsp-xc-type="GGA -- Perdew-Burke-Ernzerhof" />
<libxc-info number-of-functionals="2">
<functional name="Perdew, Burke &amp; Ernzerhof (GGA)" type="exchange" id="101" />
<functional name="Perdew, Burke &amp; Ernzerhof (GGA)" type="correlation"
 id="130" />
</libxc-info>
</exchange-correlation>
<valence-configuration total-valence-charge="16">
<shell n="5" l="d" occupation="10" />
<shell n="6" l="s" occupation="2" />
<shell n="6" l="p" occupation="4" />
</valence-configuration>
</pseudo-atom-spec>
<grid npts="457">
<annotation type="sampled from oncvpsp log grid"
 recipe="r(i:1..N) = r1*exp(a*(i-1)) + r=0; resampled"
 recipe-cont="r1: scale; a: step" scale="0.595238095238E-05"
 step="0.119285708653E-01" delta="0.500000000000E-02" rmax="44.0605889801" />
<grid-data>
  0.000000000000E+00  5.031300802255E-03  1.004962851020E-02  1.507604528350E-02
  2.031422441398E-02  2.548179300022E-02  3.084027084741E-02  3.601345981203E-02
  4.106298189261E-02  4.626532407434E-02  5.150865635998E-02  5.666623015056E-02
  6.234023300928E-02  6.776914535508E-02  7.279726845657E-02  7.819845251068E-02
  8.400037672722E-02  8.916282012991E-02  9.464253379881E-02  1.004590163345E-01
  1.066329646705E-01  1.118442171143E-01  1.173101483258E-01  1.230432046939E-01
  1.290564408741E-01  1.353635495152E-01  1.419788924385E-01  1.471517127873E-01
  1.525129982658E-01  1.580696153610E-01  1.638286807322E-01  1.697975703246E-01
  1.759839288168E-01  1.823956794117E-01  1.890410339838E-01  1.959285035968E-01
  2.030669094043E-01  2.104653939473E-01  2.155468704188E-01  2.207510340582E-01
  2.260808470245E-01  2.315393429950E-01  2.371296288923E-01  2.428548866523E-01
  2.487183750356E-01  2.547234314824E-01  2.608734740122E-01  2.671720031687E-01
  2.736226040132E-01  2.802289481645E-01  2.869947958890E-01  2.939239982409E-01
  3.010204992545E-01  3.082883381885E-01  3.157316518257E-01  3.233546768274E-01
  3.311617521447E-01  3.391573214885E-01  3.473459358585E-01  3.557322561339E-01
  3.643210557260E-01  3.731172232954E-01  3.821257655346E-01  3.913518100177E-01
  4.008006081188E-01  4.104775380012E-01  4.203881076787E-01  4.254327649708E-01
  4.305379581505E-01  4.357044136483E-01  4.409328666121E-01  4.462240610114E-01
  4.515787497436E-01  4.569976947405E-01  4.624816670774E-01  4.680314470823E-01
  4.736478244473E-01  4.793315983407E-01  4.850835775207E-01  4.909045804510E-01
  4.967954354164E-01  5.027569806414E-01  5.087900644091E-01  5.148955451820E-01
  5.210742917242E-01  5.273271832249E-01  5.336551094236E-01  5.400589707367E-01
  5.465396783855E-01  5.530981545261E-01  5.597353323804E-01  5.664521563690E-01
  5.732495822454E-01  5.801285772324E-01  5.870901201592E-01  5.941352016011E-01
  6.012648240203E-01  6.084800019085E-01  6.157817619314E-01  6.231711430746E-01
  6.306491967915E-01  6.382169871530E-01  6.458755909988E-01  6.536260980908E-01
  6.614696112679E-01  6.694072466031E-01  6.774401335624E-01  6.855694151651E-01
  6.937962481471E-01  7.021218031249E-01  7.105472647624E-01  7.190738319395E-01
  7.277027179228E-01  7.364351505379E-01  7.452723723443E-01  7.542156408125E-01
  7.632662285022E-01  7.724254232442E-01  7.816945283232E-01  7.910748626630E-01
  8.005677610150E-01  8.101745741472E-01  8.198966690369E-01  8.297354290654E-01
  8.396922542142E-01  8.497685612647E-01  8.599657839999E-01  8.702853734079E-01
  8.807287978888E-01  8.912975434635E-01  9.019931139850E-01  9.128170313529E-01
  9.237708357291E-01  9.348560857578E-01  9.460743587869E-01  9.574272510924E-01
  9.689163781055E-01  9.805433746428E-01  9.923098951385E-01  1.004217613880E+00
  1.016268225247E+00  1.028463443950E+00  1.040805005277E+00  1.053294665340E+00
  1.065934201324E+00  1.078725411740E+00  1.091670116681E+00  1.104770158081E+00
  1.118027399978E+00  1.131443728778E+00  1.145021053523E+00  1.158761306166E+00
  1.172666441840E+00  1.186738439142E+00  1.200979300412E+00  1.215391052016E+00
  1.229975744641E+00  1.244735453576E+00  1.259672279019E+00  1.274788346367E+00
  1.290085806524E+00  1.305566836202E+00  1.321233638237E+00  1.337088441895E+00
  1.353133503198E+00  1.369371105237E+00  1.385803558499E+00  1.402433201201E+00
  1.419262399616E+00  1.436293548411E+00  1.453529070992E+00  1.470971419844E+00
  1.488623076882E+00  1.506486553805E+00  1.524564392450E+00  1.542859165160E+00
  1.561373475142E+00  1.580109956843E+00  1.599071276326E+00  1.618260131641E+00
  1.637679253221E+00  1.657331404260E+00  1.677219381111E+00  1.697346013684E+00
  1.717714165848E+00  1.738326735839E+00  1.759186656669E+00  1.780296896549E+00
  1.801660459307E+00  1.823280384819E+00  1.845159749437E+00  1.867301666430E+00
  1.889709286427E+00  1.912385797864E+00  1.935334427439E+00  1.958558440568E+00
  1.982061141855E+00  2.005845875557E+00  2.029916026064E+00  2.054275018377E+00
  2.078926318597E+00  2.103873434420E+00  2.129119915633E+00  2.154669354621E+00
  2.180525386876E+00  2.206691691519E+00  2.233171991817E+00  2.259970055719E+00
  2.287089696387E+00  2.314534772744E+00  2.342309190017E+00  2.370416900297E+00
  2.398861903101E+00  2.427648245938E+00  2.456780024889E+00  2.486261385188E+00
  2.516096521810E+00  2.546289680072E+00  2.576845156233E+00  2.607767298108E+00
  2.639060505685E+00  2.670729231753E+00  2.702777982534E+00  2.735211318325E+00
  2.768033854144E+00  2.801250260394E+00  2.834865263519E+00  2.868883646681E+00
  2.903310250441E+00  2.938149973447E+00  2.973407773128E+00  3.009088666406E+00
  3.045197730402E+00  3.081740103167E+00  3.118720984405E+00  3.156145636218E+00
  3.194019383853E+00  3.232347616459E+00  3.271135787856E+00  3.310389417311E+00
  3.350114090318E+00  3.390315459402E+00  3.430999244915E+00  3.472171235854E+00
  3.513837290684E+00  3.556003338173E+00  3.598675378231E+00  3.641859482769E+00
  3.685561796563E+00  3.729788538121E+00  3.774546000579E+00  3.819840552586E+00
  3.865678639217E+00  3.912066782887E+00  3.959011584282E+00  4.006519723293E+00
  4.054597959973E+00  4.103253135493E+00  4.152492173119E+00  4.202322079196E+00
  4.252749944146E+00  4.303782943476E+00  4.355428338798E+00  4.407693478863E+00
  4.460585800610E+00  4.514112830217E+00  4.568282184180E+00  4.623101570390E+00
  4.678578789234E+00  4.734721734705E+00  4.791538395522E+00  4.849036856268E+00
  4.907225298543E+00  4.966112002126E+00  5.025705346151E+00  5.086013810305E+00
  5.147045976029E+00  5.208810527741E+00  5.271316254074E+00  5.334572049123E+00
  5.398586913712E+00  5.463369956677E+00  5.528930396157E+00  5.595277560911E+00
  5.662420891642E+00  5.730369942342E+00  5.799134381650E+00  5.868723994229E+00
  5.939148682160E+00  6.010418466346E+00  6.082543487942E+00  6.155534009798E+00
  6.229400417915E+00  6.304153222930E+00  6.379803061605E+00  6.456360698345E+00
  6.533837026725E+00  6.612243071045E+00  6.691589987898E+00  6.771889067753E+00
  6.853151736566E+00  6.935389557405E+00  7.018614232093E+00  7.102837602878E+00
  7.188071654113E+00  7.274328513962E+00  7.361620456130E+00  7.449959901603E+00
  7.539359420423E+00  7.629831733468E+00  7.721389714269E+00  7.814046390841E+00
  7.907814947531E+00  8.002708726901E+00  8.098741231624E+00  8.195926126403E+00
  8.294277239920E+00  8.393808566799E+00  8.494534269601E+00  8.596468680836E+00
  8.699626305006E+00  8.804021820666E+00  8.909670082514E+00  9.016586123504E+00
  9.124785156986E+00  9.234282578870E+00  9.345093969817E+00  9.457235097454E+00
  9.570721918624E+00  9.685570581647E+00  9.801797428627E+00  9.919418997771E+00
  1.003845202574E+01  1.015891345005E+01  1.028082041145E+01  1.040419025639E+01
  1.052904053947E+01  1.065538902594E+01  1.078325369425E+01  1.091265273858E+01
  1.104360457145E+01  1.117612782630E+01  1.131024136022E+01  1.144596425654E+01
  1.158331582762E+01  1.172231561755E+01  1.186298340496E+01  1.200533920582E+01
  1.214940327629E+01  1.229519611561E+01  1.244273846900E+01  1.259205133062E+01
  1.274315594659E+01  1.289607381795E+01  1.305082670376E+01  1.320743662421E+01
  1.336592586370E+01  1.352631697407E+01  1.368863277775E+01  1.385289637109E+01
  1.401913112754E+01  1.418736070107E+01  1.435760902948E+01  1.452990033784E+01
  1.470425914189E+01  1.488071025159E+01  1.505927877461E+01  1.523999011991E+01
  1.542287000135E+01  1.560794444136E+01  1.579523977466E+01  1.598478265196E+01
  1.617660004378E+01  1.637071924430E+01  1.656716787524E+01  1.676597388974E+01
  1.696716557642E+01  1.717077156333E+01  1.737682082209E+01  1.758534267196E+01
  1.779636678402E+01  1.800992318543E+01  1.822604226365E+01  1.844475477082E+01
  1.866609182807E+01  1.889008493001E+01  1.911676594917E+01  1.934616714056E+01
  1.957832114624E+01  1.981326100000E+01  2.005102013200E+01  2.029163237358E+01
  2.053513196206E+01  2.078155354561E+01  2.103093218816E+01  2.128330337441E+01
  2.153870301491E+01  2.179716745109E+01  2.205873346050E+01  2.232343826202E+01
  2.259131952117E+01  2.286241535542E+01  2.313676433969E+01  2.341440551176E+01
  2.369537837791E+01  2.397972291844E+01  2.426747959346E+01  2.455868934858E+01
  2.485339362077E+01  2.515163434422E+01  2.545345395635E+01  2.575889540382E+01
  2.606800214867E+01  2.638081817445E+01  2.669738799255E+01  2.701775664846E+01
  2.734196972824E+01  2.767007336498E+01  2.800211424536E+01  2.833813961630E+01
  2.867819729170E+01  2.902233565920E+01  2.937060368711E+01  2.972305093135E+01
  3.007972754253E+01  3.044068427304E+01  3.080597248431E+01  3.117564415413E+01
  3.154975188398E+01  3.192834890658E+01  3.231148909346E+01  3.269922696258E+01
  3.309161768614E+01  3.348871709837E+01  3.389058170355E+01  3.429726868399E+01
  3.470883590820E+01  3.512534193910E+01  3.554684604237E+01  3.597340819488E+01
  3.640508909321E+01  3.684195016233E+01  3.728405356428E+01  3.773146220705E+01
  3.818423975354E+01  3.864245063058E+01  3.910616003815E+01  3.957543395860E+01
  4.005033916611E+01  4.053094323610E+01  4.101731455493E+01  4.150952232959E+01
  4.200763659755E+01  4.251172823672E+01  4.302186897556E+01  4.353813140327E+01
  4.406058898011E+01
</grid-data>
</grid>
<valence-charge total-charge="16" is-unscreening-charge="yes"
 rescaled-to-z-pseudo="no">
<radfunc>
<data npts="457">
  3.803636261640E-03  3.807423764431E-03  3.820389951850E-03  3.847505698237E-03
  3.899703152038E-03  3.987728307828E-03  4.134712965910E-03  4.350887422419E-03
  4.654939352583E-03  5.090982045190E-03  5.687536401201E-03  6.462091496855E-03
  7.573324007480E-03  8.938235644955E-03  1.050989214412E-02  1.257762670223E-02
  1.529948478993E-02  1.821566606834E-02  2.188383665114E-02  2.649777033638E-02
  3.230040953679E-02  3.800037293839E-02  4.484431531850E-02  5.305911720845E-02
  6.291536581910E-02  7.473531256267E-02  8.890212263666E-02  1.013379066453E-01
  1.155701041375E-01  1.318507108664E-01  1.504651173817E-01  1.717360580315E-01
  1.960279104464E-01  2.237513462628E-01  2.553683237859E-01  2.913974000203E-01
  3.324193223297E-01  3.790828381630E-01  4.136797267245E-01  4.513371524292E-01
  4.923052805473E-01  5.368515747217E-01  5.852615033023E-01  6.378391901052E-01
  6.949079904612E-01  7.568109704614E-01  8.239112640670E-01  8.965922792355E-01
  9.752577204225E-01  1.060331390772E+00  1.152256733039E+00  1.251496063828E+00
  1.358529451177E+00  1.473853180868E+00  1.597977752362E+00  1.731425340872E+00
  1.874726658158E+00  2.028417141268E+00  2.193032395887E+00  2.369102819575E+00
  2.557147330213E+00  2.757666126955E+00  2.971132415181E+00  3.197983034084E+00
  3.438607935917E+00  3.693338480370E+00  3.962434526508E+00  4.102427820885E+00
  4.246070328937E+00  4.393367952463E+00  4.544319274885E+00  4.698915026455E+00
  4.857137535360E+00  5.018960166125E+00  5.184346746936E+00  5.353250987757E+00
  5.525615891380E+00  5.701373159777E+00  5.880442598466E+00  6.062731521849E+00
  6.248134162804E+00  6.436531090156E+00  6.627788637929E+00  6.821758350662E+00
  7.018276449378E+00  7.217163323152E+00  7.418223051544E+00  7.621242963525E+00
  7.825993238799E+00  8.032226557793E+00  8.239677806824E+00  8.448063845261E+00
  8.657083341708E+00  8.866416686465E+00  9.075725987659E+00  9.284655158560E+00
  9.492830103667E+00  9.699859011100E+00  9.905332758798E+00  1.010882544182E+01
  1.030989502784E+01  1.050808414749E+01  1.070292102589E+01  1.089392056101E+01
  1.108058555390E+01  1.126240809488E+01  1.143887110917E+01  1.160945006384E+01
  1.177361483727E+01  1.193083175051E+01  1.208056575882E+01  1.222228279961E+01
  1.235545229163E+01  1.247954977799E+01  1.259405970394E+01  1.269847831782E+01
  1.279231668173E+01  1.287510377596E+01  1.294638967900E+01  1.300574880264E+01
  1.305278315924E+01  1.308712563609E+01  1.310844324958E+01  1.311644034981E+01
  1.311086174441E+01  1.309149570877E+01  1.305817684829E+01  1.301078877758E+01
  1.294926658031E+01  1.287359901374E+01  1.278383042157E+01  1.268006231995E+01
  1.256245462237E+01  1.243122647112E+01  1.228665664556E+01  1.212908352015E+01
  1.195890454929E+01  1.177657525994E+01  1.158260773821E+01  1.137756860126E+01
  1.116207645223E+01  1.093679882203E+01  1.070244860889E+01  1.045978003367E+01
  1.020958413611E+01  9.952683844857E+00  9.689928661164E+00  9.422189003451E+00
  9.150350266485E+00  8.875306655323E+00  8.597954859608E+00  8.319187638545E+00
  8.039887390671E+00  7.760919785146E+00  7.483127532768E+00  7.207324375013E+00
  6.934289368176E+00  6.664761537037E+00  6.399434968358E+00  6.138954409097E+00
  5.883911427373E+00  5.634841186217E+00  5.392219871019E+00  5.156462801518E+00
  4.927923248443E+00  4.706891963649E+00  4.493597421040E+00  4.288206754117E+00
  4.090827364686E+00  3.901509166549E+00  3.720247418029E+00  3.546986088155E+00
  3.381621693536E+00  3.224007536388E+00  3.073958269139E+00  2.931254707391E+00
  2.795648810932E+00  2.666868751869E+00  2.544623989706E+00  2.428610275240E+00
  2.318514508393E+00  2.214019379301E+00  2.114807727101E+00  2.020566556715E+00
  1.930990660422E+00  1.845785798127E+00  1.764671397870E+00  1.687382746399E+00
  1.613672648503E+00  1.543312543426E+00  1.476093077070E+00  1.411824139841E+00
  1.350334391906E+00  1.291470310084E+00  1.235094431404E+00  1.181081918839E+00
  1.129316651010E+00  1.079690687697E+00  1.032103586740E+00  9.864617337744E-01
  9.426776623932E-01  9.006693907380E-01  8.603597990649E-01  8.216760705580E-01
  7.845492146487E-01  7.489136884449E-01  7.147071616109E-01  6.818705094634E-01
  6.503478881614E-01  6.200865790929E-01  5.910367495244E-01  5.631512796520E-01
  5.363855754639E-01  5.106973917495E-01  4.860466627623E-01  4.623953412400E-01
  4.397072461252E-01  4.179479192003E-01  3.970844907629E-01  3.770855542606E-01
  3.579210499904E-01  3.395621575324E-01  3.219811967891E-01  3.051515373455E-01
  2.890475158323E-01  2.736443609411E-01  2.589181257085E-01  2.448456266649E-01
  2.314043894314E-01  2.185726003341E-01  2.063290636058E-01  1.946531637431E-01
  1.835248325945E-01  1.729245207636E-01  1.628331729235E-01  1.532322066469E-01
  1.441034943973E-01  1.354293483108E-01  1.271925074459E-01  1.193761271885E-01
  1.119637705254E-01  1.049394009173E-01  9.828737653092E-02  9.199244560447E-02
  8.603974274867E-02  8.041478600040E-02  7.510347446693E-02  7.009208642517E-02
  6.536727773008E-02  6.091608043988E-02  5.672590154864E-02  5.278452174168E-02
  4.908009409761E-02  4.560114266992E-02  4.233656088948E-02  3.927560973640E-02
  3.640791563583E-02  3.372346803860E-02  3.121261665244E-02  2.886606829520E-02
  2.667488334598E-02  2.463047177593E-02  2.272458874471E-02  2.094932975475E-02
  1.929712536013E-02  1.776073543277E-02  1.633324299359E-02  1.500804762212E-02
  1.377885846246E-02  1.263968684887E-02  1.158483857828E-02  1.060890586083E-02
  9.706758983269E-03  8.873537722234E-03  8.104642546809E-03  7.395725651057E-03
  6.742681857936E-03  6.141639436147E-03  5.588950870964E-03  5.081183629063E-03
  4.615110955876E-03  4.187702742023E-03  3.796116493100E-03  3.437688434522E-03
  3.109924780262E-03  2.810493191409E-03  2.537214447324E-03  2.288054349089E-03
  2.061115871780E-03  1.854631579021E-03  1.666956310313E-03  1.496560148712E-03
  1.342021673794E-03  1.202021502274E-03  1.075336116406E-03  9.608319781750E-04
  8.574599254953E-04  7.642498450690E-04  6.803056152138E-04  6.048003109274E-04
  5.369716626130E-04  4.761177592949E-04  4.215929867534E-04  3.728041907983E-04
  3.292070558497E-04  2.903026890799E-04  2.556344005613E-04  2.247846701466E-04
  1.973722921427E-04  1.730496892190E-04  1.515003873875E-04  1.324366442929E-04
  1.155972234450E-04  1.007453074017E-04  8.766654325899E-05  7.616721412643E-05
  6.607253055945E-05  5.722503617560E-05  4.948312191524E-05  4.271964361016E-05
  3.682063770425E-05  3.168413013191E-05  2.721903350581E-05  2.334412790011E-05
  1.998712064169E-05  1.708378064412E-05  1.457714293920E-05  1.241677918167E-05
  1.055813002571E-05  8.961895398489E-06  7.593478827480E-06  6.422482113745E-06
  5.422246784812E-06  4.569438905996E-06  3.843673978757E-06  3.227178807631E-06
  2.704487372772E-06  2.262167902140E-06  1.888578494906E-06  1.573648804721E-06
  1.308685447076E-06  1.086198948176E-06  8.997502026515E-07  7.438145533321E-07
  6.136617473991E-07  5.052501590867E-07  4.151337991029E-07  3.403807547925E-07
  2.785018224627E-07  2.273882040483E-07  1.852572443174E-07  1.506052820926E-07
  1.221667795297E-07  9.887897747966E-08  7.985140251566E-08  6.433962255988E-08
  5.172271342230E-08  4.148395825995E-08  3.319435626193E-08  2.649856607990E-08
  2.110295397294E-08  1.676545664155E-08  1.328700461017E-08  1.050428409664E-08
  8.283643888892E-09  6.515979131694E-09  5.112446393753E-09  4.000884209050E-09
  3.122830720676E-09  2.431045340033E-09  1.887454691776E-09  1.461454751306E-09
  1.128511187169E-09  8.690086690199E-10  6.673074516939E-10  5.109720410541E-10
  3.901423175808E-10  2.970222558898E-10  2.254654369349E-10  1.706399976870E-10
  1.287585831867E-10  9.686133104308E-11  7.264199295678E-11  5.430903801713E-11
  4.047503755179E-11  3.006884398369E-11  2.226608355601E-11  1.643431692401E-11
  1.208991000637E-11  8.864223713911E-12  6.477195350332E-12  4.716763713396E-12
  3.422898703746E-12  2.475246796412E-12  1.783606322583E-12  1.280609750728E-12
  9.161212244771E-13  6.529624743756E-13  4.636638094897E-13  3.280032843901E-13
  2.311496717281E-13  1.622662868649E-13  1.134652388603E-13  7.902713180100E-14
  5.482107547863E-14  3.787526328788E-14  2.606028297550E-14  1.785649731643E-14
  1.218386724815E-14  8.277964919946E-15  5.600013504539E-15  3.771888964374E-15
  2.529356522087E-15  1.688570662575E-15  1.122180997484E-15  7.423645411597E-16
  4.888302149679E-16  3.203767296937E-16  2.089783424143E-16  1.356606801061E-16
  8.763826932817E-17  5.633717704985E-17  3.603561462886E-17  2.293391163994E-17
  1.452135127229E-17  9.147277368861E-18  5.730601244597E-18  3.572113538351E-18
  2.214742126553E-18  1.365732982717E-18  8.375768245556E-19  5.108234662482E-19
  3.097954531741E-19  1.868131462667E-19  1.120050516783E-19  6.676277392250E-20
  3.956084034516E-20  2.330221334869E-20  0.000000000000E+00  0.000000000000E+00
  0.000000000000E+00  0.000000000000E+00  0.000000000000E+00  0.000000000000E+00
  0.000000000000E+00  0.000000000000E+00  0.000000000000E+00  0.000000000000E+00
  0.000000000000E+00  0.000000000000E+00  0.000000000000E+00  0.000000000000E+00
  0.000000000000E+00  0.000000000000E+00  0.000000000000E+00  0.000000000000E+00
  0.000000000000E+00
</data>
</radfunc>
</valence-charge>
<pseudocore-charge matching-radius="0.980543374643"
 number-of-continuous-derivatives="4">
<annotation model-charge-form="Teter function with specified parameters" />
<radfunc>
<data npts="290">
  7.276193284611E+01  7.275856209457E+01  7.274848545527E+01  7.273167305814E+01
  7.270700121155E+01  7.267551689029E+01  7.263538404242E+01  7.258941950147E+01
  7.253772584047E+01  7.247742750181E+01  7.240944108674E+01  7.233552059574E+01
  7.224615013861E+01  7.215277291620E+01  7.205945160293E+01  7.195190909687E+01
  7.182800314309E+01  7.171048635633E+01  7.157829685927E+01  7.142963341141E+01
  7.126248191773E+01  7.111394596675E+01  7.095087197782E+01  7.077187385958E+01
  7.057544109873E+01  7.035992923461E+01  7.012354996807E+01  6.993140894259E+01
  6.972556120788E+01  6.950507266849E+01  6.926895228930E+01  6.901614968259E+01
  6.874555277356E+01  6.845598558487E+01  6.814620618798E+01  6.781490487705E+01
  6.746070263076E+01  6.708214993715E+01  6.681550541192E+01  6.653689583208E+01
  6.624583890485E+01  6.594183838165E+01  6.562438424319E+01  6.529295296658E+01
  6.494700788357E+01  6.458599964006E+01  6.420936676761E+01  6.381653637839E+01
  6.340692499587E+01  6.297993953424E+01  6.253497844046E+01  6.207143301329E+01
  6.158868891480E+01  6.108612789021E+01  6.056312971262E+01  6.001907436988E+01
  5.945334451114E+01  5.886532817094E+01  5.825442178895E+01  5.762003354343E+01
  5.696158701591E+01  5.627852520452E+01  5.557031490197E+01  5.483645145322E+01
  5.407646390598E+01  5.328992056499E+01  5.247643495798E+01  5.205948195989E+01
  5.163567221795E+01  5.120497305256E+01  5.076735588181E+01  5.032279645641E+01
  4.987127510060E+01  4.941277695917E+01  4.894729225024E+01  4.847481652369E+01
  4.799535092486E+01  4.750890246334E+01  4.701548428652E+01  4.651511595734E+01
  4.600782373610E+01  4.549364086557E+01  4.497260785916E+01  4.444477279127E+01
  4.391019158945E+01  4.336892832752E+01  4.282105551893E+01  4.226665440961E+01
  4.170581526931E+01  4.113863768055E+01  4.056523082414E+01  3.998571376020E+01
  3.940021570343E+01  3.880887629148E+01  3.821184584501E+01  3.760928561809E+01
  3.700136803743E+01  3.638827692894E+01  3.577020772980E+01  3.514736768463E+01
  3.451997602359E+01  3.388826412091E+01  3.325247563157E+01  3.261286660440E+01
  3.196970556934E+01  3.132327359677E+01  3.067386432682E+01  3.002178396626E+01
  2.936735125078E+01  2.871089737044E+01  2.805276585581E+01  2.739331242260E+01
  2.673290477235E+01  2.607192234707E+01  2.541075603530E+01  2.474980782768E+01
  2.408949041965E+01  2.343022675943E+01  2.277244953922E+01  2.211660062799E+01
  2.146313044411E+01  2.081249726650E+01  2.016516648304E+01  1.952160977540E+01
  1.888230423947E+01  1.824773144116E+01  1.761837640754E+01  1.699472655363E+01
  1.637727054572E+01  1.576649710235E+01  1.516289373473E+01  1.456694542875E+01
  1.397913327137E+01  1.339993302475E+01  1.282981365195E+01  1.226923579883E+01
  1.171865023732E+01  1.117849627590E+01  1.064920014382E+01  1.013117335635E+01
  9.624811068830E+00  9.130490428245E+00  8.648568931480E+00  8.179382800200E+00
  7.723245382867E+00  7.280445594997E+00  6.851246409262E+00  6.435883407558E+00
  6.034563407489E+00  5.647463176088E+00  5.274728243747E+00  4.916471831471E+00
  4.572773904512E+00  4.243680365310E+00  3.929202398317E+00  3.629315978859E+00
  3.343961557517E+00  3.073043930707E+00  2.816432307144E+00  2.573960578664E+00
  2.345427802518E+00  2.130598900644E+00  1.929205579685E+00  1.740947473526E+00
  1.565493508042E+00  1.402483485410E+00  1.251529882941E+00  1.112219858818E+00
  9.841174544947E-01  8.667659808096E-01  7.596905721251E-01  6.624008901378E-01
  5.743939563352E-01  4.951570895703E-01  4.241709228664E-01  3.609124714332E-01
  3.048582220229E-01  2.554872122350E-01  2.122840672523E-01  1.747419608018E-01
  1.423654669415E-01  1.146732696114E-01  9.120069779465E-02  7.150205563728E-02
  5.515271898320E-02  4.175097250443E-02  3.091956492291E-02  2.230696370799E-02
  1.558829504460E-02  1.046595973873E-02  6.669920980200E-03  3.957665420271E-03
  2.113844730425E-03  9.496105623870E-04  3.016614888246E-04  3.102592234696E-05
  2.161003541918E-05  1.785441837664E-04  4.263651237988E-04  7.070742741822E-04
  9.781142828847E-04  1.210307126031E-03  1.385796813725E-03  1.496038473701E-03
  1.539873126737E-03  1.521723899216E-03  1.449944821858E-03  1.335347865694E-03
  1.189927634252E-03  1.025796369029E-03  8.543348693211E-04  6.855578357557E-04
  5.276852909718E-04  3.869053831770E-04  2.673082994085E-04  1.709664402888E-04
  9.813263294894E-05  4.752612808006E-05  1.667552289734E-05  2.288585873448E-06
  6.211681447016E-07  7.820831901252E-06  2.022529825406E-05  3.460104473946E-05
  4.831304687577E-05  5.942241089249E-05  6.671413031940E-05  6.966207836627E-05
  6.834232249282E-05  6.330868243782E-05  5.544599651059E-05  4.581675858171E-05
  3.551568953631E-05  2.554456436191E-05  1.671647436888E-05  9.594981413179E-06
  4.469681908298E-06  1.365921057248E-06  8.313828138720E-08  2.538822050190E-07
  1.414118433776E-06  3.075165009570E-06  4.788404691434E-06  6.195693842627E-06
  7.060861782833E-06  7.280541181317E-06  6.875420177178E-06  5.965498581651E-06
  4.734755971506E-06  3.391586214846E-06  2.131333403556E-06  1.106328774149E-06
  4.071590717365E-07  5.678137136859E-08  0.000000000000E+00  0.000000000000E+00
  0.000000000000E+00  0.000000000000E+00  0.000000000000E+00  0.000000000000E+00
  0.000000000000E+00  0.000000000000E+00  0.000000000000E+00  0.000000000000E+00
  0.000000000000E+00  0.000000000000E+00  0.000000000000E+00  0.000000000000E+00
  0.000000000000E+00  0.000000000000E+00  0.000000000000E+00  0.000000000000E+00
  0.000000000000E+00  0.000000000000E+00  0.000000000000E+00  0.000000000000E+00
  0.000000000000E+00  0.000000000000E+00  0.000000000000E+00  0.000000000000E+00
  0.000000000000E+00  0.000000000000E+00  0.000000000000E+00  0.000000000000E+00
  0.000000000000E+00  0.000000000000E+00  0.000000000000E+00  0.000000000000E+00
  0.000000000000E+00  0.000000000000E+00
</data>
</radfunc>
</pseudocore-charge>
<semilocal-potentials set="scalar_relativistic">
<slps n="6" l="s" rc="2.20669169152">
<radfunc>
<data npts="290">
  3.633265648667E+01  3.631034228487E+01  3.624374188672E+01  3.613297656247E+01
  3.597122799840E+01  3.576618234024E+01  3.550700689943E+01  3.521315157900E+01
  3.488641160319E+01  3.451019921903E+01  3.409223779716E+01  3.364510393649E+01
  3.311442097271E+01  3.257120030733E+01  3.203944925968E+01  3.144004295317E+01
  3.076657816328E+01  3.014418004663E+01  2.946234487806E+01  2.871770959167E+01
  2.790724167433E+01  2.720972204539E+01  2.646737125834E+01  2.567944607318E+01
  2.484555324642E+01  2.396569985360E+01  2.304034110755E+01  2.231700904071E+01
  2.156919461061E+01  2.079766464183E+01  2.000336490213E+01  1.918742280582E+01
  1.835114766562E+01  1.749602828918E+01  1.662372777352E+01  1.573607541835E+01
  1.483505575630E+01  1.392279478144E+01  1.330948266004E+01  1.269286672856E+01
  1.207365936186E+01  1.145258839004E+01  1.083039410108E+01  1.020782613944E+01
  9.585640330198E+00  8.964595459376E+00  8.345450041888E+00  7.728959108615E+00
  7.115871043849E+00  6.506924503384E+00  5.902845442152E+00  5.304344278394E+00
  4.712113219051E+00  4.126823768338E+00  3.549124438426E+00  2.979638677875E+00
  2.418963029973E+00  1.867665529535E+00  1.326284343083E+00  7.953266536878E-01
  2.752677882345E-01 -2.334494185222E-01 -7.304150319555E-01 -1.215252209405E+00
 -1.687617190352E+00 -2.147199101825E+00 -2.593719598015E+00 -2.812003604712E+00
 -3.026932354912E+00 -3.238479958401E+00 -3.446622442201E+00 -3.651337725886E+00
 -3.852605595930E+00 -4.050407679279E+00 -4.244727416330E+00 -4.435550033550E+00
 -4.622862515903E+00 -4.806653579312E+00 -4.986913643345E+00 -5.163634804338E+00
 -5.336810809152E+00 -5.506437029764E+00 -5.672510438904E+00 -5.835029586934E+00
 -5.993994580167E+00 -6.149407060825E+00 -6.301270188847E+00 -6.449588625719E+00
 -6.594368520538E+00 -6.735617498500E+00 -6.873344651981E+00 -7.007560534417E+00
 -7.138277157142E+00 -7.265507989370E+00 -7.389267961463E+00 -7.509573471668E+00
 -7.626442396423E+00 -7.739894104396E+00 -7.849949474333E+00 -7.956630916814E+00
 -8.059962399955E+00 -8.159969479088E+00 -8.256679330394E+00 -8.350120788396E+00
 -8.440324387231E+00 -8.527322405421E+00 -8.611148913982E+00 -8.691839827393E+00
 -8.769432957040E+00 -8.843968066537E+00 -8.915486928219E+00 -8.984033380001E+00
 -9.049653381639E+00 -9.112395069252E+00 -9.172308806897E+00 -9.229447233740E+00
 -9.283865305297E+00 -9.335620327041E+00 -9.384771978557E+00 -9.431382326313E+00
 -9.475515823038E+00 -9.517239291622E+00 -9.556621891451E+00 -9.593735065053E+00
 -9.628652463017E+00 -9.661449845193E+00 -9.692204956317E+00 -9.720997374323E+00
 -9.747908329840E+00 -9.773020495520E+00 -9.796417744103E+00 -9.818184874389E+00
 -9.838407304501E+00 -9.857170732123E+00 -9.874560761621E+00 -9.890662498254E+00
 -9.905560109892E+00 -9.919336356902E+00 -9.932072091142E+00 -9.943845725182E+00
 -9.954732673170E+00 -9.964804764983E+00 -9.974129635644E+00 -9.982770092293E+00
 -9.990783461457E+00 -9.998220919858E+00 -1.000512681264E+01 -1.001153796371E+01
 -1.001748298376E+01 -1.002298158297E+01 -1.002804389640E+01 -1.003266983223E+01
 -1.003684845445E+01 -1.004055741417E+01 -1.004376244540E+01 -1.004641694397E+01