<?xml version="1.0" encoding="UTF-8" ?>
<psml version="1.1" energy_unit="hartree" length_unit="bohr"
 uuid="966d12e0-521d-11e8-644b-6fe1fff378ec"
 xmlns="http://esl.cecam.org/PSML/ns/1.1">
<provenance creator="ONCVPSP-3.3.0+psml-3.3.0-73 (fully-relativistic)"
 date="2018-05-07">
<annotation action="semilocal-pseudopotential-generation"
 action-cont="projectors-generation" />
<input-file name="oncvpsp-input">
<![CDATA[# atsym z nc nv iexc psfile
Po 84 10 5 4 both
# n l f
1 0 2.0
2 0 2.0
2 1 6.0
3 0 2.0
3 1 6.0
3 2 10.0
4 0 2.0
4 1 6.0
4 2 10.0
4 3 14.0
5 0 2.0
5 1 6.0
5 2 10.0
6 0 2.0
6 1 4.0
# lmax
2
# l rc ep ncon nbas qcut
0 1.4 0.0 4 8 9.0
1 1.5 0.0 4 8 8.4
2 1.4 0.0 4 8 9.0
# lloc lpopt rc5 dvloc0
4 5 1.3 0.0
# l nproj debl
0 2 1.0
1 2 1.0
2 2 2.5
# icmod fcfact rcfact
3 6.0 1.34
# epsh1 epsh2 depsh
-12.0 12.0 0.02
# rlmax drl
6.0 0.01
 0
]]>
</input-file>
</provenance>
<pseudo-atom-spec atomic-label="Po" atomic-number="84" z-pseudo="24"
 flavor="Hamann&apos;s oncvpsp" relativity="dirac" spin-dft="no"
 core-corrections="yes">
<annotation pseudo-energy="-241.236656245" />
<exchange-correlation>
<annotation oncvpsp-xc-code="4" oncvpsp-xc-type="GGA -- Perdew-Burke-Ernzerhof" />
<libxc-info number-of-functionals="2">
<functional name="Perdew, Burke &amp; Ernzerhof (GGA)" type="exchange" id="101" />
<functional name="Perdew, Burke &amp; Ernzerhof (GGA)" type="correlation"
 id="130" />
</libxc-info>
</exchange-correlation>
<valence-configuration total-valence-charge="24">
<shell n="5" l="s" occupation="2" />
<shell n="5" l="p" occupation="6" />
<shell n="5" l="d" occupation="10" />
<shell n="6" l="s" occupation="2" />
<shell n="6" l="p" occupation="4" />
</valence-configuration>
</pseudo-atom-spec>
<grid npts="457">
<annotation type="sampled from oncvpsp log grid"
 recipe="r(i:1..N) = r1*exp(a*(i-1)) + r=0; resampled"
 recipe-cont="r1: scale; a: step" scale="0.595238095238E-05"
 step="0.119285708653E-01" delta="0.500000000000E-02" rmax="44.0605889801" />
<grid-data>
  0.000000000000E+00  5.031300802255E-03  1.004962851020E-02  1.507604528350E-02
  2.031422441398E-02  2.548179300022E-02  3.084027084741E-02  3.601345981203E-02
  4.106298189261E-02  4.626532407434E-02  5.150865635998E-02  5.666623015056E-02
  6.234023300928E-02  6.776914535508E-02  7.279726845657E-02  7.819845251068E-02
  8.400037672722E-02  8.916282012991E-02  9.464253379881E-02  1.004590163345E-01
  1.066329646705E-01  1.118442171143E-01  1.173101483258E-01  1.230432046939E-01
  1.290564408741E-01  1.353635495152E-01  1.419788924385E-01  1.471517127873E-01
  1.525129982658E-01  1.580696153610E-01  1.638286807322E-01  1.697975703246E-01
  1.759839288168E-01  1.823956794117E-01  1.890410339838E-01  1.959285035968E-01
  2.030669094043E-01  2.104653939473E-01  2.155468704188E-01  2.207510340582E-01
  2.260808470245E-01  2.315393429950E-01  2.371296288923E-01  2.428548866523E-01
  2.487183750356E-01  2.547234314824E-01  2.608734740122E-01  2.671720031687E-01
  2.736226040132E-01  2.802289481645E-01  2.869947958890E-01  2.939239982409E-01
  3.010204992545E-01  3.082883381885E-01  3.157316518257E-01  3.233546768274E-01
  3.311617521447E-01  3.391573214885E-01  3.473459358585E-01  3.557322561339E-01
  3.643210557260E-01  3.731172232954E-01  3.821257655346E-01  3.913518100177E-01
  4.008006081188E-01  4.104775380012E-01  4.203881076787E-01  4.254327649708E-01
  4.305379581505E-01  4.357044136483E-01  4.409328666121E-01  4.462240610114E-01
  4.515787497436E-01  4.569976947405E-01  4.624816670774E-01  4.680314470823E-01
  4.736478244473E-01  4.793315983407E-01  4.850835775207E-01  4.909045804510E-01
  4.967954354164E-01  5.027569806414E-01  5.087900644091E-01  5.148955451820E-01
  5.210742917242E-01  5.273271832249E-01  5.336551094236E-01  5.400589707367E-01
  5.465396783855E-01  5.530981545261E-01  5.597353323804E-01  5.664521563690E-01
  5.732495822454E-01  5.801285772324E-01  5.870901201592E-01  5.941352016011E-01
  6.012648240203E-01  6.084800019085E-01  6.157817619314E-01  6.231711430746E-01
  6.306491967915E-01  6.382169871530E-01  6.458755909988E-01  6.536260980908E-01
  6.614696112679E-01  6.694072466031E-01  6.774401335624E-01  6.855694151651E-01
  6.937962481471E-01  7.021218031249E-01  7.105472647624E-01  7.190738319395E-01
  7.277027179228E-01  7.364351505379E-01  7.452723723443E-01  7.542156408125E-01
  7.632662285022E-01  7.724254232442E-01  7.816945283232E-01  7.910748626630E-01
  8.005677610150E-01  8.101745741472E-01  8.198966690369E-01  8.297354290654E-01
  8.396922542142E-01  8.497685612647E-01  8.599657839999E-01  8.702853734079E-01
  8.807287978888E-01  8.912975434635E-01  9.019931139850E-01  9.128170313529E-01
  9.237708357291E-01  9.348560857578E-01  9.460743587869E-01  9.574272510924E-01
  9.689163781055E-01  9.805433746428E-01  9.923098951385E-01  1.004217613880E+00
  1.016268225247E+00  1.028463443950E+00  1.040805005277E+00  1.053294665340E+00
  1.065934201324E+00  1.078725411740E+00  1.091670116681E+00  1.104770158081E+00
  1.118027399978E+00  1.131443728778E+00  1.145021053523E+00  1.158761306166E+00
  1.172666441840E+00  1.186738439142E+00  1.200979300412E+00  1.215391052016E+00
  1.229975744641E+00  1.244735453576E+00  1.259672279019E+00  1.274788346367E+00
  1.290085806524E+00  1.305566836202E+00  1.321233638237E+00  1.337088441895E+00
  1.353133503198E+00  1.369371105237E+00  1.385803558499E+00  1.402433201201E+00
  1.419262399616E+00  1.436293548411E+00  1.453529070992E+00  1.470971419844E+00
  1.488623076882E+00  1.506486553805E+00  1.524564392450E+00  1.542859165160E+00
  1.561373475142E+00  1.580109956843E+00  1.599071276326E+00  1.618260131641E+00
  1.637679253221E+00  1.657331404260E+00  1.677219381111E+00  1.697346013684E+00
  1.717714165848E+00  1.738326735839E+00  1.759186656669E+00  1.780296896549E+00
  1.801660459307E+00  1.823280384819E+00  1.845159749437E+00  1.867301666430E+00
  1.889709286427E+00  1.912385797864E+00  1.935334427439E+00  1.958558440568E+00
  1.982061141855E+00  2.005845875557E+00  2.029916026064E+00  2.054275018377E+00
  2.078926318597E+00  2.103873434420E+00  2.129119915633E+00  2.154669354621E+00
  2.180525386876E+00  2.206691691519E+00  2.233171991817E+00  2.259970055719E+00
  2.287089696387E+00  2.314534772744E+00  2.342309190017E+00  2.370416900297E+00
  2.398861903101E+00  2.427648245938E+00  2.456780024889E+00  2.486261385188E+00
  2.516096521810E+00  2.546289680072E+00  2.576845156233E+00  2.607767298108E+00
  2.639060505685E+00  2.670729231753E+00  2.702777982534E+00  2.735211318325E+00
  2.768033854144E+00  2.801250260394E+00  2.834865263519E+00  2.868883646681E+00
  2.903310250441E+00  2.938149973447E+00  2.973407773128E+00  3.009088666406E+00
  3.045197730402E+00  3.081740103167E+00  3.118720984405E+00  3.156145636218E+00
  3.194019383853E+00  3.232347616459E+00  3.271135787856E+00  3.310389417311E+00
  3.350114090318E+00  3.390315459402E+00  3.430999244915E+00  3.472171235854E+00
  3.513837290684E+00  3.556003338173E+00  3.598675378231E+00  3.641859482769E+00
  3.685561796563E+00  3.729788538121E+00  3.774546000579E+00  3.819840552586E+00
  3.865678639217E+00  3.912066782887E+00  3.959011584282E+00  4.006519723293E+00
  4.054597959973E+00  4.103253135493E+00  4.152492173119E+00  4.202322079196E+00
  4.252749944146E+00  4.303782943476E+00  4.355428338798E+00  4.407693478863E+00
  4.460585800610E+00  4.514112830217E+00  4.568282184180E+00  4.623101570390E+00
  4.678578789234E+00  4.734721734705E+00  4.791538395522E+00  4.849036856268E+00
  4.907225298543E+00  4.966112002126E+00  5.025705346151E+00  5.086013810305E+00
  5.147045976029E+00  5.208810527741E+00  5.271316254074E+00  5.334572049123E+00
  5.398586913712E+00  5.463369956677E+00  5.528930396157E+00  5.595277560911E+00
  5.662420891642E+00  5.730369942342E+00  5.799134381650E+00  5.868723994229E+00
  5.939148682160E+00  6.010418466346E+00  6.082543487942E+00  6.155534009798E+00
  6.229400417915E+00  6.304153222930E+00  6.379803061605E+00  6.456360698345E+00
  6.533837026725E+00  6.612243071045E+00  6.691589987898E+00  6.771889067753E+00
  6.853151736566E+00  6.935389557405E+00  7.018614232093E+00  7.102837602878E+00
  7.188071654113E+00  7.274328513962E+00  7.361620456130E+00  7.449959901603E+00
  7.539359420423E+00  7.629831733468E+00  7.721389714269E+00  7.814046390841E+00
  7.907814947531E+00  8.002708726901E+00  8.098741231624E+00  8.195926126403E+00
  8.294277239920E+00  8.393808566799E+00  8.494534269601E+00  8.596468680836E+00
  8.699626305006E+00  8.804021820666E+00  8.909670082514E+00  9.016586123504E+00
  9.124785156986E+00  9.234282578870E+00  9.345093969817E+00  9.457235097454E+00
  9.570721918624E+00  9.685570581647E+00  9.801797428627E+00  9.919418997771E+00
  1.003845202574E+01  1.015891345005E+01  1.028082041145E+01  1.040419025639E+01
  1.052904053947E+01  1.065538902594E+01  1.078325369425E+01  1.091265273858E+01
  1.104360457145E+01  1.117612782630E+01  1.131024136022E+01  1.144596425654E+01
  1.158331582762E+01  1.172231561755E+01  1.186298340496E+01  1.200533920582E+01
  1.214940327629E+01  1.229519611561E+01  1.244273846900E+01  1.259205133062E+01
  1.274315594659E+01  1.289607381795E+01  1.305082670376E+01  1.320743662421E+01
  1.336592586370E+01  1.352631697407E+01  1.368863277775E+01  1.385289637109E+01
  1.401913112754E+01  1.418736070107E+01  1.435760902948E+01  1.452990033784E+01
  1.470425914189E+01  1.488071025159E+01  1.505927877461E+01  1.523999011991E+01
  1.542287000135E+01  1.560794444136E+01  1.579523977466E+01  1.598478265196E+01
  1.617660004378E+01  1.637071924430E+01  1.656716787524E+01  1.676597388974E+01
  1.696716557642E+01  1.717077156333E+01  1.737682082209E+01  1.758534267196E+01
  1.779636678402E+01  1.800992318543E+01  1.822604226365E+01  1.844475477082E+01
  1.866609182807E+01  1.889008493001E+01  1.911676594917E+01  1.934616714056E+01
  1.957832114624E+01  1.981326100000E+01  2.005102013200E+01  2.029163237358E+01
  2.053513196206E+01  2.078155354561E+01  2.103093218816E+01  2.128330337441E+01
  2.153870301491E+01  2.179716745109E+01  2.205873346050E+01  2.232343826202E+01
  2.259131952117E+01  2.286241535542E+01  2.313676433969E+01  2.341440551176E+01
  2.369537837791E+01  2.397972291844E+01  2.426747959346E+01  2.455868934858E+01
  2.485339362077E+01  2.515163434422E+01  2.545345395635E+01  2.575889540382E+01
  2.606800214867E+01  2.638081817445E+01  2.669738799255E+01  2.701775664846E+01
  2.734196972824E+01  2.767007336498E+01  2.800211424536E+01  2.833813961630E+01
  2.867819729170E+01  2.902233565920E+01  2.937060368711E+01  2.972305093135E+01
  3.007972754253E+01  3.044068427304E+01  3.080597248431E+01  3.117564415413E+01
  3.154975188398E+01  3.192834890658E+01  3.231148909346E+01  3.269922696258E+01
  3.309161768614E+01  3.348871709837E+01  3.389058170355E+01  3.429726868399E+01
  3.470883590820E+01  3.512534193910E+01  3.554684604237E+01  3.597340819488E+01
  3.640508909321E+01  3.684195016233E+01  3.728405356428E+01  3.773146220705E+01
  3.818423975354E+01  3.864245063058E+01  3.910616003815E+01  3.957543395860E+01
  4.005033916611E+01  4.053094323610E+01  4.101731455493E+01  4.150952232959E+01
  4.200763659755E+01  4.251172823672E+01  4.302186897556E+01  4.353813140327E+01
  4.406058898011E+01
</grid-data>
</grid>
<valence-charge total-charge="24" is-unscreening-charge="yes"
 rescaled-to-z-pseudo="no">
<radfunc>
<data npts="457">
  7.593611340162E+00  7.597645955990E+00  7.609706589267E+00  7.629827326230E+00
  7.659349879471E+00  7.697016993439E+00  7.745019059720E+00  7.799979735176E+00
  7.861769539821E+00  7.933815845253E+00  8.015010616018E+00  8.103246739882E+00
  8.209860677240E+00  8.321178305123E+00  8.432350379037E+00  8.560364573905E+00
  8.707723044283E+00  8.847348003103E+00  9.004245993165E+00  9.180490838858E+00
  9.378387291256E+00  9.554002273023E+00  9.746537794000E+00  9.957544497014E+00
  1.018869688614E+01  1.044179878275E+01  1.071878777893E+01  1.094344811292E+01
  1.118363496526E+01  1.144031771593E+01  1.171450820841E+01  1.200725912908E+01
  1.231966150193E+01  1.265284111585E+01  1.300795367279E+01  1.338617841229E+01
  1.378870993206E+01  1.421674788471E+01  1.451686613215E+01  1.482919890755E+01
  1.515408734677E+01  1.549186285909E+01  1.584284403287E+01  1.620733315679E+01
  1.658561232319E+01  1.697793907872E+01  1.738454158652E+01  1.780561326386E+01
  1.824130685924E+01  1.869172793348E+01  1.915692771150E+01  1.963689527369E+01
  2.013154906034E+01  2.064072766773E+01  2.116417992221E+01  2.170155422801E+01
  2.225238719649E+01  2.281609157944E+01  2.339194354685E+01  2.397906937129E+01
  2.457643160620E+01  2.518281487530E+01  2.579681142443E+01  2.641680662590E+01
  2.704096466971E+01  2.766721472429E+01  2.829323790297E+01  2.860536899018E+01
  2.891645542991E+01  2.922613259577E+01  2.953401846007E+01  2.983971340328E+01
  3.014280007115E+01  3.044284328478E+01  3.073939000905E+01  3.103196938486E+01
  3.132009283119E+01  3.160325422278E+01  3.188093014981E+01  3.215258026555E+01
  3.241764772867E+01  3.267555974640E+01  3.292572822510E+01  3.316755053460E+01
  3.340041039255E+01  3.362367887502E+01  3.383671555908E+01  3.403886980314E+01
  3.422948216998E+01  3.440788599732E+01  3.457340912002E+01  3.472537574711E+01
  3.486310849639E+01  3.498593058827E+01  3.509316819914E+01  3.518415297405E+01
  3.525822469646E+01  3.531473411180E+01  3.535304589996E+01  3.537254178982E+01
  3.537262380752E+01  3.535271764779E+01  3.531227615586E+01  3.525078290521E+01
  3.516775585394E+01  3.506275106069E+01  3.493536643798E+01  3.478524551912E+01
  3.461208121186E+01  3.441561951000E+01  3.419566313161E+01  3.395207505064E+01
  3.368478188641E+01  3.339377711400E+01  3.307912405677E+01  3.274095862135E+01
  3.237949173460E+01  3.199501144135E+01  3.158788462260E+01  3.115855829380E+01
  3.070756044470E+01  3.023550038402E+01  2.974306855489E+01  2.923103579040E+01
  2.870025198278E+01  2.815164414464E+01  2.758621384627E+01  2.700503401952E+01
  2.640924512568E+01  2.580005069256E+01  2.517871223416E+01  2.454654357486E+01
  2.390490460916E+01  2.325519453688E+01  2.259884462287E+01  2.193731053910E+01
  2.127206435534E+01  2.060458625249E+01  1.993635603933E+01  1.926884455967E+01
  1.860350508083E+01  1.794176475820E+01  1.728501627127E+01  1.663460972684E+01
  1.599184492241E+01  1.535796405898E+01  1.473414498609E+01  1.412149505430E+01
  1.352104564076E+01  1.293374740206E+01  1.236046629676E+01  1.180198040633E+01
  1.125897756960E+01  1.073205383196E+01  1.022171269666E+01  9.728365152952E+00
  9.252330443778E+00  8.793837525639E+00  8.353027164988E+00  7.929954609346E+00
  7.524592767684E+00  7.136835833388E+00  6.766503284495E+00  6.413344200236E+00
  6.077041840976E+00  5.757218447685E+00  5.453440223678E+00  5.165222470053E+00
  4.892036259603E+00  4.633320842467E+00  4.388499134544E+00  4.156983394562E+00
  3.938178478279E+00  3.731486446391E+00  3.536311077074E+00  3.352064443368E+00
  3.178174020188E+00  3.014084100820E+00  2.859257171957E+00  2.713174847731E+00
  2.575338642359E+00  2.445270515630E+00  2.322513227867E+00  2.206630520697E+00
  2.097207141576E+00  1.993848729211E+00  1.896181576228E+00  1.803852284570E+00
  1.716527328235E+00  1.633892537017E+00  1.555652514003E+00  1.481529998632E+00
  1.411265186175E+00  1.344615013625E+00  1.281352421075E+00  1.221265596794E+00
  1.164157213433E+00  1.109843661941E+00  1.058154289083E+00  1.008930643693E+00
  9.620257361469E-01  9.173033149036E-01  8.746371633660E-01  8.339104197767E-01
  7.950149223451E-01  7.578505813403E-01  7.223247794605E-01  6.883518013979E-01
  6.558522931781E-01  6.247527515347E-01  5.949850433127E-01  5.664859546478E-01
  5.391967694656E-01  5.130628766612E-01  4.880334051733E-01  4.640608860406E-01
  4.411009404259E-01  4.191119925169E-01  3.980550061672E-01  3.778932439922E-01
  3.585920478779E-01  3.401186394890E-01  3.224419396235E-01  3.055324051745E-01
  2.893618824871E-01  2.739034759292E-01  2.591314305268E-01  2.450210275517E-01
  2.315484919948E-01  2.186909109010E-01  2.064261615940E-01  1.947328488681E-01
  1.835902502756E-01  1.729782686937E-01  1.628773914068E-01  1.532686549842E-01
  1.441336153090E-01  1.354543221329E-01  1.272132976040E-01  1.193935182543E-01
  1.119783999809E-01  1.049517855972E-01  9.829793457455E-02  9.200151463106E-02
  8.604759486324E-02  8.042164014872E-02  7.510950657878E-02  7.009743771851E-02
  6.537206148872E-02  6.092038752952E-02  5.672980489236E-02  5.278807994018E-02
  4.908335434833E-02  4.560414311343E-02  4.233933248942E-02  3.927817778061E-02
  3.641030093106E-02  3.372568785800E-02  3.121468548441E-02  2.886799843305E-02
  2.667668535068E-02  2.463215483779E-02  2.272616096512E-02  2.095079836485E-02
  1.929849688986E-02  1.776201584117E-02  1.633443776897E-02  1.500916185876E-02
  1.377989691934E-02  1.264065399460E-02  1.158573862547E-02  1.060974279254E-02
  9.707536573455E-03  8.874259551738E-03  8.105312016063E-03  7.396345990371E-03
  6.743256136042E-03  6.142170567491E-03  5.589441622117E-03  5.081636624516E-03
  4.615528683406E-03  4.188087557775E-03  3.796470626470E-03  3.438013992898E-03
  3.110223753676E-03  2.810767457111E-03  2.537465774291E-03  2.288284402474E-03
  2.061326217294E-03  1.854823687259E-03  1.667131560995E-03  1.496719834849E-03
  1.342167005764E-03  1.202153611807E-03  1.075456060467E-03  9.609407427417E-04
  8.575584292287E-04  7.643389428712E-04  6.803861016723E-04  6.048729236430E-04
  5.370370854120E-04  4.761766253240E-04  4.216458814580E-04  3.728516547844E-04
  3.292495876316E-04  2.903407477122E-04  2.556684081596E-04  2.248150142957E-04
  1.973993281961E-04  1.730737424901E-04  1.515217552349E-04  1.324555981022E-04
  1.156140105087E-04  1.007601526995E-04  8.767965114085E-05  7.617876990179E-05
  6.608270199364E-05  5.723397489724E-05  4.949096473710E-05  4.272651376637E-05
  3.682664600689E-05  3.168937604998E-05  2.722360616982E-05  2.334810703537E-05
  1.999057743356E-05  1.708677853855E-05  1.457973838168E-05  1.241902229794E-05
  1.056006524743E-05  8.963562037059E-06  7.594911599136E-06  6.423711619030E-06
  5.423299945396E-06  4.570339361758E-06  3.844442447937E-06  3.227833412755E-06
  2.705043934947E-06  2.262640206173E-06  1.888978527625E-06  1.573986968698E-06
  1.308970751879E-06  1.086439181101E-06  8.999520808119E-07  7.439838588104E-07
  6.138034470883E-07  5.053685107034E-07  4.152324447527E-07  3.404628033599E-07
  2.785699219906E-07  2.274446051746E-07  1.853038557451E-07  1.506437189783E-07
  1.221984055956E-07  9.890494157500E-08  7.987267028521E-08  6.435700380657E-08
  5.173688569330E-08  4.149548712773E-08  3.320371272071E-08  2.650614143104E-08
  2.110907253010E-08  1.677038654779E-08  1.329096702460E-08  1.050746097604E-08
  8.286184563324E-09  6.518005845252E-09  5.114058962487E-09  4.002163925784E-09
  3.123843619957E-09  2.431844920783E-09  1.888084181583E-09  1.461948984418E-09
  1.128898157788E-09  8.693108124941E-10  6.675426983030E-10  5.111546802990E-10
  3.902837050295E-10  2.971313895896E-10  2.255494260879E-10  1.707044426020E-10
  1.288078823855E-10  9.689892873907E-11  7.267057787587E-11  5.433070263621E-11
  4.049140523757E-11  3.008117018325E-11  2.227533607853E-11  1.644123942901E-11
  1.209507204782E-11  8.868060057281E-12  6.480036758990E-12  4.718860974094E-12
  3.424441312001E-12  2.476377438619E-12  1.784432061233E-12  1.281210632800E-12
  9.165568829871E-13  6.532771726406E-13  4.638902813894E-13  3.281656471867E-13
  2.312656271621E-13  1.623487781341E-13  1.135236932099E-13  7.906838874647E-14
  5.485007747358E-14  3.789556759431E-14  2.607443949843E-14  1.786632636758E-14
  1.219066290284E-14  8.282643279617E-15  5.603220335945E-15  3.774077513090E-15
  2.530843522051E-15  1.689576475364E-15  1.122858251099E-15  7.428184720538E-16
  4.891330515550E-16  3.205778161458E-16  2.091112312597E-16  1.357480779218E-16
  8.769546902777E-17  5.637442844249E-17  3.605975372676E-17  2.294947499354E-17
  1.453133430255E-17  9.153647845881E-18  5.734644522169E-18  3.574666648693E-18
  2.216345642726E-18  1.366734634499E-18  8.381990838864E-19  5.112078884461E-19
  3.100316089739E-19  1.869573950376E-19  1.120926546011E-19  6.681566554392E-20
  3.959258603755E-20  2.332115328531E-20  0.000000000000E+00  0.000000000000E+00
  0.000000000000E+00  0.000000000000E+00  0.000000000000E+00  0.000000000000E+00
  0.000000000000E+00  0.000000000000E+00  0.000000000000E+00  0.000000000000E+00
  0.000000000000E+00  0.000000000000E+00  0.000000000000E+00  0.000000000000E+00
  0.000000000000E+00  0.000000000000E+00  0.000000000000E+00  0.000000000000E+00
  0.000000000000E+00
</data>
</radfunc>
</valence-charge>
<pseudocore-charge matching-radius="0.677440133562"
 number-of-continuous-derivatives="4">
<annotation model-charge-form="Teter function with specified parameters" />
<radfunc>
<data npts="290">
  2.224478264840E+02  2.224262375032E+02  2.223617047854E+02  2.222540553950E+02
  2.220961283267E+02  2.218946736988E+02  2.216380106056E+02  2.213442305084E+02
  2.210140609175E+02  2.206292377534E+02  2.201957431640E+02  2.197248853973E+02
  2.191562736322E+02  2.185629398295E+02  2.179707482182E+02  2.172892885730E+02
  2.165054350278E+02  2.157632825501E+02  2.149299593599E+02  2.139946714603E+02
  2.129454559366E+02  2.120152109790E+02  2.109962158600E+02  2.098804857775E+02
  2.086594186946E+02  2.073237694912E+02  2.058636283264E+02  2.046804796973E+02
  2.034166394417E+02  2.020671675974E+02  2.006269084430E+02  1.990904953055E+02
  1.974523583866E+02  1.957067361227E+02  1.938476906489E+02  1.918691279984E+02
  1.897648237267E+02  1.875284547118E+02  1.859610217399E+02  1.843301600101E+02
  1.826339771022E+02  1.808705927866E+02  1.790381477977E+02  1.771348135381E+02
  1.751588027695E+02  1.731083813431E+02  1.709818810202E+02  1.687777134318E+02
  1.664943852194E+02  1.641305143951E+02  1.616848479484E+02  1.591562807211E+02
  1.565438755565E+02  1.538468847165E+02  1.510647725419E+02  1.481972393135E+02
  1.452442462457E+02  1.422060415197E+02  1.390831872319E+02  1.358765871009E+02
  1.325875147353E+02  1.292176422259E+02  1.257690687781E+02  1.222443490497E+02
  1.186465208063E+02  1.149791314513E+02  1.112462629252E+02  1.093567013840E+02
  1.074525544094E+02  1.055344922320E+02  1.036032222090E+02  1.016594892428E+02
  9.970407612601E+01  9.773780380841E+01  9.576153157866E+01  9.377615715349E+01
  9.178261666841E+01  8.978188456243E+01  8.777497334998E+01  8.576293327295E+01
  8.374685182558E+01  8.172785314530E+01  7.970709726242E+01  7.768577920166E+01
  7.566512792904E+01  7.364640513733E+01  7.163090386406E+01  6.961994693614E+01
  6.761488523564E+01  6.561709578186E+01  6.362797962541E+01  6.164895955043E+01
  5.968147758241E+01  5.772699229918E+01  5.578697594437E+01  5.386291134300E+01
  5.195628862061E+01  5.006860172808E+01  4.820134477603E+01  4.635600818403E+01
  4.453407465123E+01  4.273701495702E+01  4.096628360177E+01  3.922331429962E+01
  3.750951533740E+01  3.582626481533E+01  3.417490578753E+01  3.255674132238E+01
  3.097302950458E+01  2.942497840332E+01  2.791374103258E+01  2.644041033206E+01
  2.500601419885E+01  2.361151060205E+01  2.225778281437E+01  2.094563479602E+01
  1.967578676812E+01  1.844887101357E+01  1.726542794467E+01  1.612590247702E+01
  1.503064074993E+01  1.397988723325E+01  1.297378225992E+01  1.201236002306E+01
  1.109554707444E+01  1.022316135951E+01  9.394911821839E+00  8.610398606214E+00
  7.869113886659E+00  7.170443340872E+00  6.513668288060E+00  5.897968501598E+00
  5.322425702018E+00  4.786027729298E+00  4.287673386428E+00  3.826177938799E+00
  3.400279246150E+00  3.008644495747E+00  2.649877497196E+00  2.322526490975E+00
  2.025092414517E+00  1.756037561599E+00  1.513794563100E+00  1.296775609973E+00
  1.103381832793E+00  9.320127465306E-01  7.810756646108E-01  6.489949828208E-01
  5.342212315627E-01  4.352397943374E-01  3.505791913860E-01  2.788188301863E-01
  2.185961290953E-01  1.686129268782E-01  1.276410991837E-01  9.452731316910E-02
  6.819686336254E-02  4.765654533392E-02  3.199653864163E-02  2.039128658118E-02
  1.209937719154E-02  6.462447428414E-03  2.903150003671E-03  9.222396918029E-04
  9.485246915226E-05  6.606621376328E-05  5.458453899818E-04  1.303483722433E-03
  2.161667912084E-03  2.990291595756E-03  3.700151700660E-03  4.236658883341E-03
  4.573689754986E-03  4.707701083591E-03  4.652215253894E-03  4.432772213820E-03
  4.082426327954E-03  3.637847505679E-03  3.136065299259E-03  2.611873095399E-03
  2.095887843105E-03  1.613239800715E-03  1.182847378790E-03  8.172150996913E-04
  5.226787078952E-04  3.000111466640E-04  1.452969084119E-04  5.098041900350E-05
  6.996666159865E-06  1.899035639450E-06  2.390985216693E-05  6.183279443830E-05
  1.057823355607E-04  1.477026770450E-04  1.816662316466E-04  2.039584808269E-04
  2.129709494347E-04  2.089361909551E-04  1.935473434391E-04  1.695095351179E-04
  1.400710229153E-04  1.085785882041E-04  7.809485810124E-05  5.110561586783E-05
  2.933378316146E-05  1.366471431812E-05  4.175894708244E-06  2.541704057164E-07
  7.761688355485E-07  4.323243757828E-06  9.401396385461E-06  1.463911380953E-05
  1.894147908038E-05  2.158647104685E-05  2.225807504093E-05  2.101953885437E-05
  1.823772598494E-05  1.447509890950E-05  1.036875949161E-05  6.515913810819E-06
  3.382269018425E-06  1.244766968088E-06  1.735920439667E-07  0.000000000000E+00
  0.000000000000E+00  0.000000000000E+00  0.000000000000E+00  0.000000000000E+00
  0.000000000000E+00  0.000000000000E+00  0.000000000000E+00  0.000000000000E+00
  0.000000000000E+00  0.000000000000E+00  0.000000000000E+00  0.000000000000E+00
  0.000000000000E+00  0.000000000000E+00  0.000000000000E+00  0.000000000000E+00
  0.000000000000E+00  0.000000000000E+00  0.000000000000E+00  0.000000000000E+00
  0.000000000000E+00  0.000000000000E+00  0.000000000000E+00  0.000000000000E+00
  0.000000000000E+00  0.000000000000E+00  0.000000000000E+00  0.000000000000E+00
  0.000000000000E+00  0.000000000000E+00  0.000000000000E+00  0.000000000000E+00
  0.000000000000E+00  0.000000000000E+00  0.000000000000E+00  0.000000000000E+00
  0.000000000000E+00  0.000000000000E+00  0.000000000000E+00  0.000000000000E+00
  0.000000000000E+00  0.000000000000E+00  0.000000000000E+00  0.000000000000E+00
  0.000000000000E+00  0.000000000000E+00  0.000000000000E+00  0.000000000000E+00
  0.000000000000E+00  0.000000000000E+00  0.000000000000E+00  0.000000000000E+00
  0.000000000000E+00  0.000000000000E+00  0.000000000000E+00  0.000000000000E+00
  0.000000000000E+00  0.000000000000E+00  0.000000000000E+00  0.000000000000E+00
  0.000000000000E+00  0.000000000000E+00  0.000000000000E+00  0.000000000000E+00
  0.000000000000E+00  0.000000000000E+00
</data>
</radfunc>
</pseudocore-charge>
<semilocal-potentials set="scalar_relativistic">
<slps n="5" l="s" rc="1.40243320120">
<radfunc>
<data npts="290">
 -2.323727404958E+01 -2.323855408925E+01 -2.324237953842E+01 -2.324875835708E+01
 -2.325811063495E+01 -2.327003061691E+01 -2.328520110804E+01 -2.330254326869E+01
 -2.332200530172E+01 -2.334465125239E+01 -2.337011290962E+01 -2.339771100596E+01
 -2.343095817615E+01 -2.346555713078E+01 -2.349999423619E+01 -2.353950497108E+01
 -2.358479737550E+01 -2.362752770748E+01 -2.367533099578E+01 -2.372876196356E+01
 -2.378842347158E+01 -2.384107501005E+01 -2.389848643560E+01 -2.396103330794E+01
 -2.402910960613E+01 -2.410312616232E+01 -2.418350840281E+01 -2.424823508321E+01
 -2.431697539096E+01 -2.438991782757E+01 -2.446725067137E+01 -2.454916031379E+01
 -2.463582932330E+01 -2.472743421225E+01 -2.482414288175E+01 -2.492611172049E+01
 -2.503348233471E+01 -2.514637788829E+01 -2.522476176592E+01 -2.530566981575E+01
 -2.538911942784E+01 -2.547512135126E+01 -2.556367897887E+01 -2.565478759386E+01
 -2.574843357880E+01 -2.584459358773E+01 -2.594323368289E+01 -2.604430843731E+01
 -2.614776000552E+01 -2.625351716460E+01 -2.636149432855E+01 -2.647159053909E+01
 -2.658368843683E+01 -2.669765321677E+01 -2.681333157299E+01 -2.693055063747E+01
 -2.704911691871E+01 -2.716881524603E+01 -2.728940772616E+01 -2.741063271885E+01
 -2.753220383893E+01 -2.765380899248E+01 -2.777510945538E+01 -2.789573900290E+01
 -2.801530309945E+01 -2.813337815816E+01 -2.824951088058E+01 -2.830669894349E+01
 -2.836321768735E+01 -2.841900185672E+01 -2.847398425146E+01 -2.852809571863E+01
 -2.858126514645E+01 -2.863341946064E+01 -2.868448362286E+01 -2.873438063189E+01
 -2.878303152714E+01 -2.883035539508E+01 -2.887626937840E+01 -2.892068868820E+01
 -2.896352661937E+01 -2.900469456918E+01 -2.904410205934E+01 -2.908165676173E+01
 -2.911726452781E+01 -2.915082942198E+01 -2.918225375912E+01 -2.921143814631E+01
 -2.923828152910E+01 -2.926268124233E+01 -2.928453306586E+01 -2.930373128526E+01
 -2.932016875765E+01 -2.933373698298E+01 -2.934432618077E+01 -2.935182537262E+01
 -2.935612247058E+01 -2.935710437155E+01 -2.935465705793E+01 -2.934866570449E+01
 -2.933901479189E+01 -2.932558822664E+01 -2.930826946784E+01 -2.928694166069E+01
 -2.926148777694E+01 -2.923179076221E+01 -2.919773369037E+01 -2.915919992496E+01
 -2.911607328767E+01 -2.906823823396E+01 -2.901558003575E+01 -2.895798497138E+01
 -2.889534052263E+01 -2.882753557909E+01 -2.875446064986E+01 -2.867600808267E+01
 -2.859207229078E+01 -2.850254998776E+01 -2.840734043063E+01 -2.830634567195E+01
 -2.819947082129E+01 -2.808662431734E+01 -2.796771821142E+01 -2.784266846402E+01
 -2.771139525610E+01 -2.757382331718E+01 -2.742988227300E+01 -2.727950701577E+01
 -2.712263810091E+01 -2.695922217473E+01 -2.678921243837E+01 -2.661256915442E+01
 -2.642926020355E+01 -2.623926169985E+01 -2.604255867516E+01 -2.583914584412E+01
 -2.562902846401E+01 -2.541222330538E+01 -2.518875975245E+01 -2.495868105529E+01
 -2.472204575933E+01 -2.447892934229E+01 -2.422942609324E+01 -2.397365127438E+01
 -2.371174361281E+01 -2.344386817668E+01 -2.317021969909E+01 -2.289102642183E+01
 -2.260655454186E+01 -2.231711335392E+01 -2.202306119398E+01 -2.172481229931E+01