Po    ONCVPSP-3.3.0  r_core=   1.40243   1.50649   1.40243
84.0000     24.0000      180507    zatom,zion,pspd
8      11   2     4   600     0    pspcod,pspxc,lmax,lloc,mmax,r2well
5.99000000  6.00000000  0.00000000    rchrg fchrg qchrg
2     4     4     0    nproj
3     1           extension_switch
4     4     0    nprojso
0                         2.5017628024594D+00  1.7503765418112D+01
1  0.0000000000000D+00  2.1691817508884D-09 -9.5921171006097D-10
2  1.0000000000000D-02 -1.9000882952037D-02  8.8704812294366D-02
3  2.0000000000000D-02 -3.7746304379622D-02  1.7713105104050D-01
4  3.0000000000000D-02 -5.5983412553617D-02  2.6500166066255D-01
5  4.0000000000000D-02 -7.3464538897433D-02  3.5204260493500D-01
6  5.0000000000000D-02 -8.9949699031391D-02  4.3798433542083D-01
7  6.0000000000000D-02 -1.0520898674748D-01  5.2256321111932D-01
8  7.0000000000000D-02 -1.1902482781393D-01  6.0552285420541D-01
9  8.0000000000000D-02 -1.3119406267816D-01  6.8661542770156D-01
10  9.0000000000000D-02 -1.4152982978633D-01  7.6560282209469D-01
11  1.0000000000000D-01 -1.4986322432785D-01  8.4225773927572D-01
12  1.1000000000000D-01 -1.5604471069676D-01  9.1636466371830D-01
13  1.2000000000000D-01 -1.5994527078673D-01  9.8772071250096D-01
14  1.3000000000000D-01 -1.6145727434343D-01  1.0561363575889D+00
15  1.4000000000000D-01 -1.6049506192524D-01  1.1214360156982D+00
16  1.5000000000000D-01 -1.5699523550363D-01  1.1834585030380D+00
17  1.6000000000000D-01 -1.5091665629962D-01  1.2420573542341D+00
18  1.7000000000000D-01 -1.4224015403082D-01  1.2971010067473D+00
19  1.8000000000000D-01 -1.3096795626428D-01  1.3484728540827D+00
20  1.9000000000000D-01 -1.1712285096122D-01  1.3960711730075D+00
21  2.0000000000000D-01 -1.0074709949250D-01  1.4398089318269D+00
22  2.1000000000000D-01 -8.1901121329768D-02  1.4796134884747D+00
23  2.2000000000000D-01 -6.0661975213754D-02  1.5154261887389D+00
24  2.3000000000000D-01 -3.7121664808632D-02  1.5472018763271D+00
25  2.4000000000000D-01 -1.1385299615722D-02  1.5749083276605D+00
26  2.5000000000000D-01  1.6430855806141D-02  1.5985256252586D+00
27  2.6000000000000D-01  4.6201409523258D-02  1.6180454842990D+00
28  2.7000000000000D-01  7.7793910842911D-02  1.6334705474247D+00
29  2.8000000000000D-01  1.1107092330101D-01  1.6448136630831D+00
30  2.9000000000000D-01  1.4589206547159D-01  1.6520971626365D+00
31  3.0000000000000D-01  1.8211598366921D-01  1.6553521511670D+00
32  3.1000000000000D-01  2.1960222184210D-01  1.6546178263138D+00
33  3.2000000000000D-01  2.5821295577352D-01  1.6499408386404D+00
34  3.3000000000000D-01  2.9781456109932D-01  1.6413747059381D+00
35  3.4000000000000D-01  3.3827898757837D-01  1.6289792925482D+00
36  3.5000000000000D-01  3.7948491547914D-01  1.6128203632490D+00
37  3.6000000000000D-01  4.2131867382065D-01  1.5929692195258D+00
38  3.7000000000000D-01  4.6367490447171D-01  1.5695024241505D+00
39  3.8000000000000D-01  5.0645696070462D-01  1.5425016179744D+00
40  3.9000000000000D-01  5.4957703364687D-01  1.5120534307081D+00
41  4.0000000000000D-01  5.9295600510163D-01  1.4782494852743D+00
42  4.1000000000000D-01  6.3652303033323D-01  1.4411864930942D+00
43  4.2000000000000D-01  6.8021485955505D-01  1.4009664354559D+00
44  4.3000000000000D-01  7.2397491192865D-01  1.3576968239478D+00
45  4.4000000000000D-01  7.6775212079804D-01  1.3114910308567D+00
46  4.5000000000000D-01  8.1149957355885D-01  1.2624686784782D+00
47  4.6000000000000D-01  8.5517297391307D-01  1.2107560744854D+00
48  4.7000000000000D-01  8.9872895821072D-01  1.1564866789074D+00
49  4.8000000000000D-01  9.4212330105245D-01  1.0998015868937D+00
50  4.9000000000000D-01  9.8530904825673D-01  1.0408500103302D+00
51  5.0000000000000D-01  1.0282346176201D+00  9.7978974054169D-01
52  5.1000000000000D-01  1.0708419095662D+00  9.1678757379437D-01
53  5.2000000000000D-01  1.1130644707514D+00  8.5201968111299D-01
54  5.3000000000000D-01  1.1548257539299D+00  7.8567190406441D-01
55  5.4000000000000D-01  1.1960375168742D+00  7.1793995864056D-01
56  5.5000000000000D-01  1.2365984018747D+00  6.4902953019949D-01
57  5.6000000000000D-01  1.2763927353096D+00  5.7915624359232D-01
58  5.7000000000000D-01  1.3152895840224D+00  5.0854549409912D-01
59  5.8000000000000D-01  1.3531421017496D+00  4.3743212661769D-01
60  5.9000000000000D-01  1.3897871947128D+00  3.6605995265032D-01
61  6.0000000000000D-01  1.4250455306993D+00  2.9468109702319D-01
62  6.1000000000000D-01  1.4587219106666D+00  2.2355516887290D-01
63  6.2000000000000D-01  1.4906060160761D+00  1.5294825426460D-01
64  6.3000000000000D-01  1.5204735389954D+00  8.3131730766702D-02
65  6.4000000000000D-01  1.5480876955035D+00  1.4380907400295D-02
66  6.5000000000000D-01  1.5732011162307D+00 -5.3026503459232D-02
67  6.6000000000000D-01  1.5955581010939D+00 -1.1881207249171D-01
68  6.7000000000000D-01  1.6148972184917D+00 -1.8269848526898D-01
69  6.8000000000000D-01  1.6309542225758D+00 -2.4441150359029D-01
70  6.9000000000000D-01  1.6434652558033D+00 -3.0368203748100D-01
71  7.0000000000000D-01  1.6521702979176D+00 -3.6024830630556D-01
72  7.1000000000000D-01  1.6568168168778D+00 -4.1385806496477D-01
73  7.2000000000000D-01  1.6571635722303D+00 -4.6427086897106D-01
74  7.3000000000000D-01  1.6529845170180D+00 -5.1126035034146D-01
75  7.4000000000000D-01  1.6440727406899D+00 -5.5461647477552D-01
76  7.5000000000000D-01  1.6302443926465D+00 -5.9414774951425D-01
77  7.6000000000000D-01  1.6113425241385D+00 -6.2968335064900D-01
78  7.7000000000000D-01  1.5872407852525D+00 -6.6107513848099D-01
79  7.8000000000000D-01  1.5578469137222D+00 -6.8819952984032D-01
80  7.9000000000000D-01  1.5231059533165D+00 -7.1095919706879D-01
81  8.0000000000000D-01  1.4830031415863D+00 -7.2928456465286D-01
82  8.1000000000000D-01  1.4375664097941D+00 -7.4313507625709D-01
83  8.2000000000000D-01  1.3868684418782D+00 -7.5250020713872D-01
84  8.3000000000000D-01  1.3310282442804D+00 -7.5740019960102D-01
85  8.4000000000000D-01  1.2702121843290D+00 -7.5788650223223D-01
86  8.5000000000000D-01  1.2046344615475D+00 -7.5404189714719D-01
87  8.6000000000000D-01  1.1345569836869D+00 -7.4598030325642D-01
88  8.7000000000000D-01  1.0602886273081D+00 -7.3384624767215D-01
89  8.8000000000000D-01  9.8218387132523D-01 -7.1781400168786D-01
90  8.9000000000000D-01  9.0064080085269D-01 -6.9808638224135D-01
91  9.0000000000000D-01  8.1609848794852D-01 -6.7489322437765D-01
92  9.1000000000000D-01  7.2903376518017D-01 -6.4848953484733D-01
93  9.2000000000000D-01  6.3995741726971D-01 -6.1915334157220D-01
94  9.3000000000000D-01  5.4940982523968D-01 -5.8718325820123D-01
95  9.4000000000000D-01  4.5795610633207D-01 -5.5289578729537D-01
96  9.5000000000000D-01  3.6618080136932D-01 -5.1662238975298D-01
97  9.6000000000000D-01  2.7468216902637D-01 -4.7870635184979D-01
98  9.7000000000000D-01  1.8406615355580D-01 -4.3949948465647D-01
99  9.8000000000000D-01  9.4940098726247D-02 -3.9935869355321D-01
100  9.9000000000000D-01  7.9062860052445D-03 -3.5864245803883D-01
101  1.0000000000000D+00 -7.6444620824099D-02 -3.1770726395625D-01
102  1.0100000000000D+00 -1.5754013935961D-01 -2.7690403163691D-01
103  1.0200000000000D+00 -2.3483245346714D-01 -2.3657458425082D-01
104  1.0300000000000D+00 -3.0780473172929D-01 -1.9704820076835D-01
105  1.0400000000000D+00 -3.7597719250490D-01 -1.5863829747289D-01
106  1.0500000000000D+00 -4.3891283073340D-01 -1.2163928080686D-01
107  1.0600000000000D+00 -4.9622272498870D-01 -8.6323612551300D-02
108  1.0700000000000D+00 -5.4757084754541D-01 -5.2939126128043D-02
109  1.0800000000000D+00 -5.9267830652410D-01 -2.1706629592543D-02
110  1.0900000000000D+00 -6.3132695568387D-01  7.1821724090319D-03
111  1.1000000000000D+00 -6.6336231597207D-01  3.3566409746854D-02
112  1.1100000000000D+00 -6.8869576113593D-01  5.7317407116318D-02
113  1.1200000000000D+00 -7.0730592980351D-01  7.8339654736256D-02
114  1.1300000000000D+00 -7.1923933721460D-01  9.6571375987100D-02
115  1.1400000000000D+00 -7.2461017064109D-01  1.1198468393341D-01
116  1.1500000000000D+00 -7.2359926352291D-01  1.2458532412288D-01
117  1.1600000000000D+00 -7.1645225449920D-01  1.3441200657736D-01
118  1.1700000000000D+00 -7.0347695065827D-01  1.4153533638506D-01
119  1.1800000000000D+00 -6.8503992526054D-01  1.4605635769576D-01
120  1.1900000000000D+00 -6.6156238927977D-01  1.4810473040606D-01
121  1.2000000000000D+00 -6.3351538949070D-01  1.4783656541480D-01
122  1.2100000000000D+00 -6.0141439513927D-01  1.4543194890793D-01
123  1.2200000000000D+00 -5.6581334385737D-01  1.4109219037730D-01
124  1.2300000000000D+00 -5.2729822452200D-01  1.3503683253948D-01
125  1.2400000000000D+00 -4.8648028551201D-01  1.2750046660772D-01
126  1.2500000000000D+00 -4.4398895988742D-01  1.1872939788672D-01
127  1.2600000000000D+00 -4.0046460370135D-01  1.0897820891938D-01
128  1.2700000000000D+00 -3.5655115520611D-01  9.8506272846911D-02
129  1.2800000000000D+00 -3.1288881996749D-01  8.7574268654881D-02
130  1.2900000000000D+00 -2.7010665091256D-01  7.6440645355709D-02
131  1.3000000000000D+00 -2.2881574893758D-01  6.5358362171846D-02
132  1.3100000000000D+00 -1.8960381949105D-01  5.4572216393294D-02
133  1.3200000000000D+00 -1.5302120172593D-01  4.4312505692363D-02
134  1.3300000000000D+00 -1.1956782479922D-01  3.4789053843209D-02
135  1.3400000000000D+00 -8.9679812892118D-02  2.6185041192279D-02
136  1.3500000000000D+00 -6.3724620878963D-02  1.8654546218888D-02
137  1.3600000000000D+00 -4.2011136192829D-02  1.2324725944965D-02
138  1.3700000000000D+00 -2.4709764990755D-02  7.2715259485170D-03
139  1.3800000000000D+00 -1.1941731618154D-02  3.5449958170178D-03
140  1.3900000000000D+00 -4.1820508470572D-03  1.2929190931684D-03
141  1.4000000000000D+00 -8.1456336465953D-04  3.1761866939934D-04
142  1.4100000000000D+00  5.3070730840315D-05  2.8794276188771D-05
143  1.4200000000000D+00 -7.6495293109253D-06  5.2145899040627D-07
144  1.4300000000000D+00 -4.4744124518819D-05  6.1134607163418D-06
145  1.4400000000000D+00  4.6076051039187D-06 -1.5941059517021D-08
146  1.4500000000000D+00  4.2717103718305D-06 -2.2505217986254D-07
147  1.4600000000000D+00  1.2249587899854D-06 -5.6427228979436D-07
148  1.4700000000000D+00  2.1098661524958D-07 -9.7190127109708D-08
149  1.4800000000000D+00  0.0000000000000D+00  0.0000000000000D+00
150  1.4900000000000D+00  0.0000000000000D+00  0.0000000000000D+00
151  1.5000000000000D+00  0.0000000000000D+00  0.0000000000000D+00
152  1.5100000000000D+00  0.0000000000000D+00  0.0000000000000D+00
153  1.5200000000000D+00  0.0000000000000D+00  0.0000000000000D+00
154  1.5300000000000D+00  0.0000000000000D+00  0.0000000000000D+00
155  1.5400000000000D+00  0.0000000000000D+00  0.0000000000000D+00
156  1.5500000000000D+00  0.0000000000000D+00  0.0000000000000D+00
157  1.5600000000000D+00  0.0000000000000D+00  0.0000000000000D+00
158  1.5700000000000D+00  0.0000000000000D+00  0.0000000000000D+00
159  1.5800000000000D+00  0.0000000000000D+00  0.0000000000000D+00
160  1.5900000000000D+00  0.0000000000000D+00  0.0000000000000D+00
161  1.6000000000000D+00  0.0000000000000D+00  0.0000000000000D+00
162  1.6100000000000D+00  0.0000000000000D+00  0.0000000000000D+00
163  1.6200000000000D+00  0.0000000000000D+00  0.0000000000000D+00
164  1.6300000000000D+00  0.0000000000000D+00  0.0000000000000D+00
165  1.6400000000000D+00  0.0000000000000D+00  0.0000000000000D+00
166  1.6500000000000D+00  0.0000000000000D+00  0.0000000000000D+00
167  1.6600000000000D+00  0.0000000000000D+00  0.0000000000000D+00
168  1.6700000000000D+00  0.0000000000000D+00  0.0000000000000D+00
169  1.6800000000000D+00  0.0000000000000D+00  0.0000000000000D+00
170  1.6900000000000D+00  0.0000000000000D+00  0.0000000000000D+00
171  1.7000000000000D+00  0.0000000000000D+00  0.0000000000000D+00
172  1.7100000000000D+00  0.0000000000000D+00  0.0000000000000D+00
173  1.7200000000000D+00  0.0000000000000D+00  0.0000000000000D+00
174  1.7300000000000D+00  0.0000000000000D+00  0.0000000000000D+00
175  1.7400000000000D+00  0.0000000000000D+00  0.0000000000000D+00
176  1.7500000000000D+00  0.0000000000000D+00  0.0000000000000D+00
177  1.7600000000000D+00  0.0000000000000D+00  0.0000000000000D+00
178  1.7700000000000D+00  0.0000000000000D+00  0.0000000000000D+00
179  1.7800000000000D+00  0.0000000000000D+00  0.0000000000000D+00
180  1.7900000000000D+00  0.0000000000000D+00  0.0000000000000D+00
181  1.8000000000000D+00  0.0000000000000D+00  0.0000000000000D+00
182  1.8100000000000D+00  0.0000000000000D+00  0.0000000000000D+00
183  1.8200000000000D+00  0.0000000000000D+00  0.0000000000000D+00
184  1.8300000000000D+00  0.0000000000000D+00  0.0000000000000D+00
185  1.8400000000000D+00  0.0000000000000D+00  0.0000000000000D+00
186  1.8500000000000D+00  0.0000000000000D+00  0.0000000000000D+00
187  1.8600000000000D+00  0.0000000000000D+00  0.0000000000000D+00
188  1.8700000000000D+00  0.0000000000000D+00  0.0000000000000D+00
189  1.8800000000000D+00  0.0000000000000D+00  0.0000000000000D+00
190  1.8900000000000D+00  0.0000000000000D+00  0.0000000000000D+00
191  1.9000000000000D+00  0.0000000000000D+00  0.0000000000000D+00
192  1.9100000000000D+00  0.0000000000000D+00  0.0000000000000D+00
193  1.9200000000000D+00  0.0000000000000D+00  0.0000000000000D+00
194  1.9300000000000D+00  0.0000000000000D+00  0.0000000000000D+00
195  1.9400000000000D+00  0.0000000000000D+00  0.0000000000000D+00
196  1.9500000000000D+00  0.0000000000000D+00  0.0000000000000D+00
197  1.9600000000000D+00  0.0000000000000D+00  0.0000000000000D+00
198  1.9700000000000D+00  0.0000000000000D+00  0.0000000000000D+00
199  1.9800000000000D+00  0.0000000000000D+00  0.0000000000000D+00
200  1.9900000000000D+00  0.0000000000000D+00  0.0000000000000D+00
201  2.0000000000000D+00  0.0000000000000D+00  0.0000000000000D+00
202  2.0100000000000D+00  0.0000000000000D+00  0.0000000000000D+00
203  2.0200000000000D+00  0.0000000000000D+00  0.0000000000000D+00
204  2.0300000000000D+00  0.0000000000000D+00  0.0000000000000D+00
205  2.0400000000000D+00  0.0000000000000D+00  0.0000000000000D+00
206  2.0500000000000D+00  0.0000000000000D+00  0.0000000000000D+00
207  2.0600000000000D+00  0.0000000000000D+00  0.0000000000000D+00
208  2.0700000000000D+00  0.0000000000000D+00  0.0000000000000D+00
209  2.0800000000000D+00  0.0000000000000D+00  0.0000000000000D+00
210  2.0900000000000D+00  0.0000000000000D+00  0.0000000000000D+00
211  2.1000000000000D+00  0.0000000000000D+00  0.0000000000000D+00
212  2.1100000000000D+00  0.0000000000000D+00  0.0000000000000D+00
213  2.1200000000000D+00  0.0000000000000D+00  0.0000000000000D+00
214  2.1300000000000D+00  0.0000000000000D+00  0.0000000000000D+00
215  2.1400000000000D+00  0.0000000000000D+00  0.0000000000000D+00
216  2.1500000000000D+00  0.0000000000000D+00  0.0000000000000D+00
217  2.1600000000000D+00  0.0000000000000D+00  0.0000000000000D+00
218  2.1700000000000D+00  0.0000000000000D+00  0.0000000000000D+00
219  2.1800000000000D+00  0.0000000000000D+00  0.0000000000000D+00
220  2.1900000000000D+00  0.0000000000000D+00  0.0000000000000D+00
221  2.2000000000000D+00  0.0000000000000D+00  0.0000000000000D+00
222  2.2100000000000D+00  0.0000000000000D+00  0.0000000000000D+00
223  2.2200000000000D+00  0.0000000000000D+00  0.0000000000000D+00
224  2.2300000000000D+00  0.0000000000000D+00  0.0000000000000D+00
225  2.2400000000000D+00  0.0000000000000D+00  0.0000000000000D+00
226  2.2500000000000D+00  0.0000000000000D+00  0.0000000000000D+00
227  2.2600000000000D+00  0.0000000000000D+00  0.0000000000000D+00
228  2.2700000000000D+00  0.0000000000000D+00  0.0000000000000D+00
229  2.2800000000000D+00  0.0000000000000D+00  0.0000000000000D+00
230  2.2900000000000D+00  0.0000000000000D+00  0.0000000000000D+00
231  2.3000000000000D+00  0.0000000000000D+00  0.0000000000000D+00
232  2.3100000000000D+00  0.0000000000000D+00  0.0000000000000D+00
233  2.3200000000000D+00  0.0000000000000D+00  0.0000000000000D+00
234  2.3300000000000D+00  0.0000000000000D+00  0.0000000000000D+00
235  2.3400000000000D+00  0.0000000000000D+00  0.0000000000000D+00
236  2.3500000000000D+00  0.0000000000000D+00  0.0000000000000D+00
237  2.3600000000000D+00  0.0000000000000D+00  0.0000000000000D+00
238  2.3700000000000D+00  0.0000000000000D+00  0.0000000000000D+00
239  2.3800000000000D+00  0.0000000000000D+00  0.0000000000000D+00
240  2.3900000000000D+00  0.0000000000000D+00  0.0000000000000D+00
241  2.4000000000000D+00  0.0000000000000D+00  0.0000000000000D+00
242  2.4100000000000D+00  0.0000000000000D+00  0.0000000000000D+00
243  2.4200000000000D+00  0.0000000000000D+00  0.0000000000000D+00
244  2.4300000000000D+00  0.0000000000000D+00  0.0000000000000D+00
245  2.4400000000000D+00  0.0000000000000D+00  0.0000000000000D+00
246  2.4500000000000D+00  0.0000000000000D+00  0.0000000000000D+00
247  2.4600000000000D+00  0.0000000000000D+00  0.0000000000000D+00
248  2.4700000000000D+00  0.0000000000000D+00  0.0000000000000D+00
249  2.4800000000000D+00  0.0000000000000D+00  0.0000000000000D+00
250  2.4900000000000D+00  0.0000000000000D+00  0.0000000000000D+00
251  2.5000000000000D+00  0.0000000000000D+00  0.0000000000000D+00
252  2.5100000000000D+00  0.0000000000000D+00  0.0000000000000D+00
253  2.5200000000000D+00  0.0000000000000D+00  0.0000000000000D+00
254  2.5300000000000D+00  0.0000000000000D+00  0.0000000000000D+00
255  2.5400000000000D+00  0.0000000000000D+00  0.0000000000000D+00
256  2.5500000000000D+00  0.0000000000000D+00  0.0000000000000D+00
257  2.5600000000000D+00  0.0000000000000D+00  0.0000000000000D+00
258  2.5700000000000D+00  0.0000000000000D+00  0.0000000000000D+00
259  2.5800000000000D+00  0.0000000000000D+00  0.0000000000000D+00
260  2.5900000000000D+00  0.0000000000000D+00  0.0000000000000D+00
261  2.6000000000000D+00  0.0000000000000D+00  0.0000000000000D+00
262  2.6100000000000D+00  0.0000000000000D+00  0.0000000000000D+00
263  2.6200000000000D+00  0.0000000000000D+00  0.0000000000000D+00
264  2.6300000000000D+00  0.0000000000000D+00  0.0000000000000D+00
265  2.6400000000000D+00  0.0000000000000D+00  0.0000000000000D+00
266  2.6500000000000D+00  0.0000000000000D+00  0.0000000000000D+00
267  2.6600000000000D+00  0.0000000000000D+00  0.0000000000000D+00
268  2.6700000000000D+00  0.0000000000000D+00  0.0000000000000D+00
269  2.6800000000000D+00  0.0000000000000D+00  0.0000000000000D+00
270  2.6900000000000D+00  0.0000000000000D+00  0.0000000000000D+00
271  2.7000000000000D+00  0.0000000000000D+00  0.0000000000000D+00
272  2.7100000000000D+00  0.0000000000000D+00  0.0000000000000D+00
273  2.7200000000000D+00  0.0000000000000D+00  0.0000000000000D+00
274  2.7300000000000D+00  0.0000000000000D+00  0.0000000000000D+00
275  2.7400000000000D+00  0.0000000000000D+00  0.0000000000000D+00
276  2.7500000000000D+00  0.0000000000000D+00  0.0000000000000D+00
277  2.7600000000000D+00  0.0000000000000D+00  0.0000000000000D+00
278  2.7700000000000D+00  0.0000000000000D+00  0.0000000000000D+00
279  2.7800000000000D+00  0.0000000000000D+00  0.0000000000000D+00
280  2.7900000000000D+00  0.0000000000000D+00  0.0000000000000D+00
281  2.8000000000000D+00  0.0000000000000D+00  0.0000000000000D+00
282  2.8100000000000D+00  0.0000000000000D+00  0.0000000000000D+00
283  2.8200000000000D+00  0.0000000000000D+00  0.0000000000000D+00
284  2.8300000000000D+00  0.0000000000000D+00  0.0000000000000D+00
285  2.8400000000000D+00  0.0000000000000D+00  0.0000000000000D+00
286  2.8500000000000D+00  0.0000000000000D+00  0.0000000000000D+00
287  2.8600000000000D+00  0.0000000000000D+00  0.0000000000000D+00
288  2.8700000000000D+00  0.0000000000000D+00  0.0000000000000D+00
289  2.8800000000000D+00  0.0000000000000D+00  0.0000000000000D+00
290  2.8900000000000D+00  0.0000000000000D+00  0.0000000000000D+00
291  2.9000000000000D+00  0.0000000000000D+00  0.0000000000000D+00
292  2.9100000000000D+00  0.0000000000000D+00  0.0000000000000D+00
293  2.9200000000000D+00  0.0000000000000D+00  0.0000000000000D+00
294  2.9300000000000D+00  0.0000000000000D+00  0.0000000000000D+00
295  2.9400000000000D+00  0.0000000000000D+00  0.0000000000000D+00
296  2.9500000000000D+00  0.0000000000000D+00  0.0000000000000D+00
297  2.9600000000000D+00  0.0000000000000D+00  0.0000000000000D+00
298  2.9700000000000D+00  0.0000000000000D+00  0.0000000000000D+00
299  2.9800000000000D+00  0.0000000000000D+00  0.0000000000000D+00
300  2.9900000000000D+00  0.0000000000000D+00  0.0000000000000D+00
301  3.0000000000000D+00  0.0000000000000D+00  0.0000000000000D+00
302  3.0100000000000D+00  0.0000000000000D+00  0.0000000000000D+00
303  3.0200000000000D+00  0.0000000000000D+00  0.0000000000000D+00
304  3.0300000000000D+00  0.0000000000000D+00  0.0000000000000D+00
305  3.0400000000000D+00  0.0000000000000D+00  0.0000000000000D+00
306  3.0500000000000D+00  0.0000000000000D+00  0.0000000000000D+00
307  3.0600000000000D+00  0.0000000000000D+00  0.0000000000000D+00
308  3.0700000000000D+00  0.0000000000000D+00  0.0000000000000D+00
309  3.0800000000000D+00  0.0000000000000D+00  0.0000000000000D+00
310  3.0900000000000D+00  0.0000000000000D+00  0.0000000000000D+00
311  3.1000000000000D+00  0.0000000000000D+00  0.0000000000000D+00
312  3.1100000000000D+00  0.0000000000000D+00  0.0000000000000D+00
313  3.1200000000000D+00  0.0000000000000D+00  0.0000000000000D+00
314  3.1300000000000D+00  0.0000000000000D+00  0.0000000000000D+00
315  3.1400000000000D+00  0.0000000000000D+00  0.0000000000000D+00
316  3.1500000000000D+00  0.0000000000000D+00  0.0000000000000D+00
317  3.1600000000000D+00  0.0000000000000D+00  0.0000000000000D+00
318  3.1700000000000D+00  0.0000000000000D+00  0.0000000000000D+00
319  3.1800000000000D+00  0.0000000000000D+00  0.0000000000000D+00
320  3.1900000000000D+00  0.0000000000000D+00  0.0000000000000D+00
321  3.2000000000000D+00  0.0000000000000D+00  0.0000000000000D+00
322  3.2100000000000D+00  0.0000000000000D+00  0.0000000000000D+00
323  3.2200000000000D+00  0.0000000000000D+00  0.0000000000000D+00
324  3.2300000000000D+00  0.0000000000000D+00  0.0000000000000D+00
325  3.2400000000000D+00  0.0000000000000D+00  0.0000000000000D+00
326  3.2500000000000D+00  0.0000000000000D+00  0.0000000000000D+00
327  3.2600000000000D+00  0.0000000000000D+00  0.0000000000000D+00
328  3.2700000000000D+00  0.0000000000000D+00  0.0000000000000D+00
329  3.2800000000000D+00  0.0000000000000D+00  0.0000000000000D+00
330  3.2900000000000D+00  0.0000000000000D+00  0.0000000000000D+00
331  3.3000000000000D+00  0.0000000000000D+00  0.0000000000000D+00
332  3.3100000000000D+00  0.0000000000000D+00  0.0000000000000D+00
333  3.3200000000000D+00  0.0000000000000D+00  0.0000000000000D+00
334  3.3300000000000D+00  0.0000000000000D+00  0.0000000000000D+00
335  3.3400000000000D+00  0.0000000000000D+00  0.0000000000000D+00
336  3.3500000000000D+00  0.0000000000000D+00  0.0000000000000D+00
337  3.3600000000000D+00  0.0000000000000D+00  0.0000000000000D+00
338  3.3700000000000D+00  0.0000000000000D+00  0.0000000000000D+00
339  3.3800000000000D+00  0.0000000000000D+00  0.0000000000000D+00
340  3.3900000000000D+00  0.0000000000000D+00  0.0000000000000D+00
341  3.4000000000000D+00  0.0000000000000D+00  0.0000000000000D+00
342  3.4100000000000D+00  0.0000000000000D+00  0.0000000000000D+00
343  3.4200000000000D+00  0.0000000000000D+00  0.0000000000000D+00
344  3.4300000000000D+00  0.0000000000000D+00  0.0000000000000D+00
345  3.4400000000000D+00  0.0000000000000D+00  0.0000000000000D+00
346  3.4500000000000D+00  0.0000000000000D+00  0.0000000000000D+00
347  3.4600000000000D+00  0.0000000000000D+00  0.0000000000000D+00
348  3.4700000000000D+00  0.0000000000000D+00  0.0000000000000D+00
349  3.4800000000000D+00  0.0000000000000D+00  0.0000000000000D+00
350  3.4900000000000D+00  0.0000000000000D+00  0.0000000000000D+00
351  3.5000000000000D+00  0.0000000000000D+00  0.0000000000000D+00
352  3.5100000000000D+00  0.0000000000000D+00  0.0000000000000D+00
353  3.5200000000000D+00  0.0000000000000D+00  0.0000000000000D+00
354  3.5300000000000D+00  0.0000000000000D+00  0.0000000000000D+00
355  3.5400000000000D+00  0.0000000000000D+00  0.0000000000000D+00
356  3.5500000000000D+00  0.0000000000000D+00  0.0000000000000D+00
357  3.5600000000000D+00  0.0000000000000D+00  0.0000000000000D+00
358  3.5700000000000D+00  0.0000000000000D+00  0.0000000000000D+00
359  3.5800000000000D+00  0.0000000000000D+00  0.0000000000000D+00
360  3.5900000000000D+00  0.0000000000000D+00  0.0000000000000D+00
361  3.6000000000000D+00  0.0000000000000D+00  0.0000000000000D+00
362  3.6100000000000D+00  0.0000000000000D+00  0.0000000000000D+00
363  3.6200000000000D+00  0.0000000000000D+00  0.0000000000000D+00
364  3.6300000000000D+00  0.0000000000000D+00  0.0000000000000D+00
365  3.6400000000000D+00  0.0000000000000D+00  0.0000000000000D+00
366  3.6500000000000D+00  0.0000000000000D+00  0.0000000000000D+00
367  3.6600000000000D+00  0.0000000000000D+00  0.0000000000000D+00
368  3.6700000000000D+00  0.0000000000000D+00  0.0000000000000D+00
369  3.6800000000000D+00  0.0000000000000D+00  0.0000000000000D+00
370  3.6900000000000D+00  0.0000000000000D+00  0.0000000000000D+00
371  3.7000000000000D+00  0.0000000000000D+00  0.0000000000000D+00
372  3.7100000000000D+00  0.0000000000000D+00  0.0000000000000D+00
373  3.7200000000000D+00  0.0000000000000D+00  0.0000000000000D+00
374  3.7300000000000D+00  0.0000000000000D+00  0.0000000000000D+00
375  3.7400000000000D+00  0.0000000000000D+00  0.0000000000000D+00
376  3.7500000000000D+00  0.0000000000000D+00  0.0000000000000D+00
377  3.7600000000000D+00  0.0000000000000D+00  0.0000000000000D+00
378  3.7700000000000D+00  0.0000000000000D+00  0.0000000000000D+00
379  3.7800000000000D+00  0.0000000000000D+00  0.0000000000000D+00
380  3.7900000000000D+00  0.0000000000000D+00  0.0000000000000D+00
381  3.8000000000000D+00  0.0000000000000D+00  0.0000000000000D+00
382  3.8100000000000D+00  0.0000000000000D+00  0.0000000000000D+00
383  3.8200000000000D+00  0.0000000000000D+00  0.0000000000000D+00
384  3.8300000000000D+00  0.0000000000000D+00  0.0000000000000D+00
385  3.8400000000000D+00  0.0000000000000D+00  0.0000000000000D+00
386  3.8500000000000D+00  0.0000000000000D+00  0.0000000000000D+00
387  3.8600000000000D+00  0.0000000000000D+00  0.0000000000000D+00
388  3.8700000000000D+00  0.0000000000000D+00  0.0000000000000D+00
389  3.8800000000000D+00  0.0000000000000D+00  0.0000000000000D+00
390  3.8900000000000D+00  0.0000000000000D+00  0.0000000000000D+00
391  3.9000000000000D+00  0.0000000000000D+00  0.0000000000000D+00
392  3.9100000000000D+00  0.0000000000000D+00  0.0000000000000D+00
393  3.9200000000000D+00  0.0000000000000D+00  0.0000000000000D+00
394  3.9300000000000D+00  0.0000000000000D+00  0.0000000000000D+00
395  3.9400000000000D+00  0.0000000000000D+00  0.0000000000000D+00
396  3.9500000000000D+00  0.0000000000000D+00  0.0000000000000D+00
397  3.9600000000000D+00  0.0000000000000D+00  0.0000000000000D+00
398  3.9700000000000D+00  0.0000000000000D+00  0.0000000000000D+00
399  3.9800000000000D+00  0.0000000000000D+00  0.0000000000000D+00
400  3.9900000000000D+00  0.0000000000000D+00  0.0000000000000D+00
401  4.0000000000000D+00  0.0000000000000D+00  0.0000000000000D+00
402  4.0100000000000D+00  0.0000000000000D+00  0.0000000000000D+00
403  4.0200000000000D+00  0.0000000000000D+00  0.0000000000000D+00
404  4.0300000000000D+00  0.0000000000000D+00  0.0000000000000D+00
405  4.0400000000000D+00  0.0000000000000D+00  0.0000000000000D+00
406  4.0500000000000D+00  0.0000000000000D+00  0.0000000000000D+00
407  4.0600000000000D+00  0.0000000000000D+00  0.0000000000000D+00
408  4.0700000000000D+00  0.0000000000000D+00  0.0000000000000D+00
409  4.0800000000000D+00  0.0000000000000D+00  0.0000000000000D+00
410  4.0900000000000D+00  0.0000000000000D+00  0.0000000000000D+00
411  4.1000000000000D+00  0.0000000000000D+00  0.0000000000000D+00
412  4.1100000000000D+00  0.0000000000000D+00  0.0000000000000D+00
413  4.1200000000000D+00  0.0000000000000D+00  0.0000000000000D+00
414  4.1300000000000D+00  0.0000000000000D+00  0.0000000000000D+00
415  4.1400000000000D+00  0.0000000000000D+00  0.0000000000000D+00
416  4.1500000000000D+00  0.0000000000000D+00  0.0000000000000D+00
417  4.1600000000000D+00  0.0000000000000D+00  0.0000000000000D+00
418  4.1700000000000D+00  0.0000000000000D+00  0.0000000000000D+00
419  4.1800000000000D+00  0.0000000000000D+00  0.0000000000000D+00
420  4.1900000000000D+00  0.0000000000000D+00  0.0000000000000D+00
421  4.2000000000000D+00  0.0000000000000D+00  0.0000000000000D+00
422  4.2100000000000D+00  0.0000000000000D+00  0.0000000000000D+00
423  4.2200000000000D+00  0.0000000000000D+00  0.0000000000000D+00
424  4.2300000000000D+00  0.0000000000000D+00  0.0000000000000D+00
425  4.2400000000000D+00  0.0000000000000D+00  0.0000000000000D+00
426  4.2500000000000D+00  0.0000000000000D+00  0.0000000000000D+00
427  4.2600000000000D+00  0.0000000000000D+00  0.0000000000000D+00
428  4.2700000000000D+00  0.0000000000000D+00  0.0000000000000D+00
429  4.2800000000000D+00  0.0000000000000D+00  0.0000000000000D+00
430  4.2900000000000D+00  0.0000000000000D+00  0.0000000000000D+00
431  4.3000000000000D+00  0.0000000000000D+00  0.0000000000000D+00
432  4.3100000000000D+00  0.0000000000000D+00  0.0000000000000D+00
433  4.3200000000000D+00  0.0000000000000D+00  0.0000000000000D+00
434  4.3300000000000D+00  0.0000000000000D+00  0.0000000000000D+00
435  4.3400000000000D+00  0.0000000000000D+00  0.0000000000000D+00
436  4.3500000000000D+00  0.0000000000000D+00  0.0000000000000D+00
437  4.3600000000000D+00  0.0000000000000D+00  0.0000000000000D+00
438  4.3700000000000D+00  0.0000000000000D+00  0.0000000000000D+00
439  4.3800000000000D+00  0.0000000000000D+00  0.0000000000000D+00
440  4.3900000000000D+00  0.0000000000000D+00  0.0000000000000D+00
441  4.4000000000000D+00  0.0000000000000D+00  0.0000000000000D+00
442  4.4100000000000D+00  0.0000000000000D+00  0.0000000000000D+00
443  4.4200000000000D+00  0.0000000000000D+00  0.0000000000000D+00