<?xml version="1.0" encoding="UTF-8" ?>
<psml version="1.1" energy_unit="hartree" length_unit="bohr"
 uuid="e13bdbc0-4319-11e8-772a-3306fcb62f07"
 xmlns="http://esl.cecam.org/PSML/ns/1.1">
<provenance creator="ONCVPSP-3.3.0+psml-3.3.0-73 (fully-relativistic)"
 date="2018-04-18">
<annotation action="semilocal-pseudopotential-generation"
 action-cont="projectors-generation" />
<input-file name="oncvpsp-input">
<![CDATA[# atsym z nc nv iexc psfile
Na 11 1 3 4 both
# n l f
1 0 2.0
2 0 2.0
2 1 6.0
3 0 1.0
# lmax
1
# l rc ep ncon nbas qcut
0 1.2 0.0 4 7 9.0
1 1.55 0.0 4 7 9.0
# lloc lpopt rc5 dvloc0
4 5 1.2 0.0
# l nproj debl
0 2 1.0
1 2 3.0
# icmod fcfact
0 0.04
# epsh1 epsh2 depsh
-12.0 12.0 0.02
# rlmax drl
4.0 0.01
 0
]]>
</input-file>
</provenance>
<pseudo-atom-spec atomic-label="Na" atomic-number="11" z-pseudo="9"
 flavor="Hamann&apos;s oncvpsp" relativity="dirac" spin-dft="no"
 core-corrections="no">
<annotation pseudo-energy="-45.6640207337" />
<exchange-correlation>
<annotation oncvpsp-xc-code="4" oncvpsp-xc-type="GGA -- Perdew-Burke-Ernzerhof" />
<libxc-info number-of-functionals="2">
<functional name="Perdew, Burke &amp; Ernzerhof (GGA)" type="exchange" id="101" />
<functional name="Perdew, Burke &amp; Ernzerhof (GGA)" type="correlation"
 id="130" />
</libxc-info>
</exchange-correlation>
<valence-configuration total-valence-charge="9">
<shell n="2" l="s" occupation="2" />
<shell n="2" l="p" occupation="6" />
<shell n="3" l="s" occupation="1" />
</valence-configuration>
</pseudo-atom-spec>
<grid npts="457">
<annotation type="sampled from oncvpsp log grid"
 recipe="r(i:1..N) = r1*exp(a*(i-1)) + r=0; resampled"
 recipe-cont="r1: scale; a: step" scale="0.454545454545E-04"
 step="0.119285708653E-01" delta="0.500000000000E-02" rmax="44.2842989144" />
<grid-data>
  0.000000000000E+00  5.056846352100E-03  1.010065374127E-02  1.515259126661E-02
  2.017526317734E-02  2.530748255671E-02  3.062930526546E-02  3.576710657652E-02
  4.078208695772E-02  4.594884206075E-02  5.115630687128E-02  5.627859982527E-02
  6.191378916899E-02  6.730556456298E-02  7.316688385485E-02  7.859549147632E-02
  8.442687394831E-02  8.961552875446E-02  9.512306471111E-02  1.009690794195E-01
  1.071743748984E-01  1.124120865651E-01  1.179057700863E-01  1.236679350454E-01
  1.297117023806E-01  1.360508342627E-01  1.426997654326E-01  1.478988498720E-01
  1.532873563398E-01  1.588721861865E-01  1.646604922048E-01  1.706596877901E-01
  1.768774564356E-01  1.833217615728E-01  1.900008567704E-01  1.969232963057E-01
  2.040979461202E-01  2.115339951745E-01  2.166412719540E-01  2.218718588240E-01
  2.272287329835E-01  2.327149435126E-01  2.383336131088E-01  2.440879398637E-01
  2.499811990838E-01  2.560167451544E-01  2.621980134495E-01  2.685285222862E-01
  2.750118749283E-01  2.816517616365E-01  2.884519617695E-01  2.954163459344E-01
  3.025488781907E-01  3.098536183057E-01  3.173347240661E-01  3.249964536439E-01
  3.328431680207E-01  3.408793334694E-01  3.491095240967E-01  3.575384244465E-01
  3.661708321663E-01  3.750116607381E-01  3.840659422750E-01  3.933388303853E-01
  4.028356031061E-01  4.125616659075E-01  4.225225547692E-01  4.275928254264E-01
  4.327239393315E-01  4.379166266035E-01  4.431716261228E-01  4.484896856362E-01
  4.538715618639E-01  4.593180206062E-01  4.648298368535E-01  4.704077948957E-01
  4.760526884345E-01  4.817653206957E-01  4.875465045441E-01  4.933970625986E-01
  4.993178273498E-01  5.053096412780E-01  5.113733569733E-01  5.175098372570E-01
  5.237199553041E-01  5.300045947677E-01  5.363646499049E-01  5.428010257038E-01
  5.493146380122E-01  5.559064136684E-01  5.625772906324E-01  5.693282181200E-01
  5.761601567374E-01  5.830740786183E-01  5.900709675617E-01  5.971518191724E-01
  6.043176410025E-01  6.115694526945E-01  6.189082861269E-01  6.263351855604E-01
  6.338512077871E-01  6.414574222806E-01  6.491549113479E-01  6.569447702841E-01
  6.648281075275E-01  6.728060448178E-01  6.808797173557E-01  6.890502739639E-01
  6.973188772515E-01  7.056867037785E-01  7.141549442238E-01  7.227248035545E-01
  7.313975011972E-01  7.401742712116E-01  7.490563624661E-01  7.580450388157E-01
  7.671415792815E-01  7.763472782329E-01  7.856634455716E-01  7.950914069185E-01
  8.046325038015E-01  8.142880938471E-01  8.240595509733E-01  8.339482655850E-01
  8.439556447720E-01  8.540831125093E-01  8.643321098594E-01  8.747040951777E-01
  8.852005443198E-01  8.958229508517E-01  9.065728262619E-01  9.174517001770E-01
  9.284611205792E-01  9.396026540261E-01  9.508778858744E-01  9.622884205049E-01
  9.738358815510E-01  9.855219121296E-01  9.973481750751E-01  1.009316353176E+00
  1.021428149414E+00  1.033685287207E+00  1.046089510654E+00  1.058642584781E+00
  1.071346295799E+00  1.084202451348E+00  1.097212880765E+00  1.110379435334E+00
  1.123703988558E+00  1.137188436420E+00  1.150834697658E+00  1.164644714029E+00
  1.178620450598E+00  1.192763896005E+00  1.207077062757E+00  1.221561987510E+00
  1.236220731360E+00  1.251055380137E+00  1.266068044698E+00  1.281260861235E+00
  1.296635991569E+00  1.312195623468E+00  1.327941970950E+00  1.343877274601E+00
  1.360003801896E+00  1.376323847519E+00  1.392839733689E+00  1.409553810494E+00
  1.426468456220E+00  1.443586077694E+00  1.460909110627E+00  1.478440019954E+00
  1.496181300194E+00  1.514135475796E+00  1.532305101505E+00  1.550692762723E+00
  1.569301075876E+00  1.588132688787E+00  1.607190281052E+00  1.626476564425E+00
  1.645994283198E+00  1.665746214596E+00  1.685735169171E+00  1.705963991201E+00
  1.726435559096E+00  1.747152785805E+00  1.768118619235E+00  1.789336042665E+00
  1.810808075177E+00  1.832537772080E+00  1.854528225345E+00  1.876782564049E+00
  1.899303954817E+00  1.922095602275E+00  1.945160749502E+00  1.968502678496E+00
  1.992124710638E+00  2.016030207166E+00  2.040222569652E+00  2.064705240488E+00
  2.089481703374E+00  2.114555483814E+00  2.139930149620E+00  2.165609311415E+00
  2.191596623152E+00  2.217895782630E+00  2.244510532022E+00  2.271444658406E+00
  2.298701994307E+00  2.326286418239E+00  2.354201855257E+00  2.382452277520E+00
  2.411041704851E+00  2.439974205309E+00  2.469253895773E+00  2.498884942522E+00
  2.528871561832E+00  2.559218020574E+00  2.589928636821E+00  2.621007780463E+00
  2.652459873828E+00  2.684289392314E+00  2.716500865022E+00  2.749098875402E+00
  2.782088061907E+00  2.815473118650E+00  2.849258796074E+00  2.883449901627E+00
  2.918051300446E+00  2.953067916052E+00  2.988504731044E+00  3.024366787817E+00
  3.060659189271E+00  3.097387099542E+00  3.134555744736E+00  3.172170413673E+00
  3.210236458637E+00  3.248759296141E+00  3.287744407695E+00  3.327197340587E+00
  3.367123708674E+00  3.407529193178E+00  3.448419543496E+00  3.489800578018E+00
  3.531678184954E+00  3.574058323174E+00  3.616947023052E+00  3.660350387329E+00
  3.704274591977E+00  3.748725887080E+00  3.793710597725E+00  3.839235124898E+00
  3.885305946397E+00  3.931929617754E+00  3.979112773167E+00  4.026862126445E+00
  4.075184471962E+00  4.124086685625E+00  4.173575725853E+00  4.223658634563E+00
  4.274342538178E+00  4.325634648636E+00  4.377542264420E+00  4.430072771593E+00
  4.483233644852E+00  4.537032448590E+00  4.591476837973E+00  4.646574560029E+00
  4.702333454749E+00  4.758761456206E+00  4.815866593681E+00  4.873656992805E+00
  4.932140876718E+00  4.991326567239E+00  5.051222486046E+00  5.111837155879E+00
  5.173179201749E+00  5.235257352170E+00  5.298080440396E+00  5.361657405681E+00
  5.425997294549E+00  5.491109262084E+00  5.557002573229E+00  5.623686604107E+00
  5.691170843357E+00  5.759464893477E+00  5.828578472199E+00  5.898521413865E+00
  5.969303670831E+00  6.040935314881E+00  6.113426538660E+00  6.186787657124E+00
  6.261029109009E+00  6.336161458317E+00  6.412195395817E+00  6.489141740567E+00
  6.567011441454E+00  6.645815578751E+00  6.725565365696E+00  6.806272150085E+00
  6.887947415886E+00  6.970602784876E+00  7.054250018295E+00  7.138901018514E+00
  7.224567830737E+00  7.311262644705E+00  7.398997796442E+00  7.487785769999E+00
  7.577639199239E+00  7.668570869630E+00  7.760593720066E+00  7.853720844706E+00
  7.947965494843E+00  8.043341080781E+00  8.139861173750E+00  8.237539507835E+00
  8.336389981929E+00  8.436426661713E+00  8.537663781653E+00  8.640115747033E+00
  8.743797135997E+00  8.848722701629E+00  8.954907374049E+00  9.062366262537E+00
  9.171114657688E+00  9.281168033580E+00  9.392542049983E+00  9.505252554583E+00
  9.619315585238E+00  9.734747372261E+00  9.851564340728E+00  9.969783112817E+00
  1.008942051017E+01  1.021049355629E+01  1.033301947897E+01  1.045701571272E+01
  1.058249990127E+01  1.070948990008E+01  1.083800377888E+01  1.096805982423E+01
  1.109967654212E+01  1.123287266063E+01  1.136766713255E+01  1.150407913815E+01
  1.164212808780E+01  1.178183362486E+01  1.192321562836E+01  1.206629421590E+01
  1.221108974649E+01  1.235762282344E+01  1.250591429733E+01  1.265598526889E+01
  1.280785709212E+01  1.296155137723E+01  1.311708999375E+01  1.327449507368E+01
  1.343378901456E+01  1.359499448274E+01  1.375813441653E+01  1.392323202953E+01
  1.409031081388E+01  1.425939454365E+01  1.443050727817E+01  1.460367336551E+01
  1.477891744590E+01  1.495626445525E+01  1.513573962871E+01  1.531736850425E+01
  1.550117692631E+01  1.568719104942E+01  1.587543734201E+01  1.606594259012E+01
  1.625873390120E+01  1.645383870801E+01  1.665128477251E+01  1.685110018978E+01
  1.705331339206E+01  1.725795315276E+01  1.746504859060E+01  1.767462917368E+01
  1.788672472377E+01  1.810136542045E+01  1.831858180550E+01  1.853840478716E+01
  1.876086564461E+01  1.898599603234E+01  1.921382798473E+01  1.944439392055E+01
  1.967772664760E+01  1.991385936737E+01  2.015282567978E+01  2.039465958793E+01
  2.063939550299E+01  2.088706824902E+01  2.113771306801E+01  2.139136562483E+01
  2.164806201233E+01  2.190783875647E+01  2.217073282155E+01  2.243678161541E+01
  2.270602299480E+01  2.297849527073E+01  2.325423721398E+01  2.353328806055E+01
  2.381568751728E+01  2.410147576748E+01  2.439069347669E+01  2.468338179841E+01
  2.497958237999E+01  2.527933736855E+01  2.558268941698E+01  2.588968168998E+01
  2.620035787026E+01  2.651476216470E+01  2.683293931068E+01  2.715493458241E+01
  2.748079379740E+01  2.781056332297E+01  2.814429008284E+01  2.848202156384E+01
  2.882380582260E+01  2.916969149247E+01  2.951972779038E+01  2.987396452387E+01
  3.023245209815E+01  3.059524152333E+01  3.096238442161E+01  3.133393303467E+01
  3.170994023109E+01  3.209045951386E+01  3.247554502803E+01  3.286525156836E+01
  3.325963458718E+01  3.365875020223E+01  3.406265520466E+01  3.447140706711E+01
  3.488506395192E+01  3.530368471934E+01  3.572732893597E+01  3.615605688320E+01
  3.658992956580E+01  3.702900872059E+01  3.747335682524E+01  3.792303710714E+01
  3.837811355243E+01  3.883865091506E+01  3.930471472604E+01  3.977637130275E+01
  4.025368775838E+01  4.073673201148E+01  4.122557279562E+01  4.172027966917E+01
  4.222092302520E+01  4.272757410150E+01  4.324030499072E+01  4.375918865061E+01
  4.428429891442E+01
</grid-data>
</grid>
<valence-charge total-charge="9" is-unscreening-charge="yes"
 rescaled-to-z-pseudo="no">
<radfunc>
<data npts="457">
  1.699539911396E+01  1.700172904350E+01  1.702064363318E+01  1.705217422495E+01
  1.709595973789E+01  1.715343959896E+01  1.722654318603E+01  1.731004162781E+01
  1.740365718950E+01  1.751246766825E+01  1.763465126376E+01  1.776689862872E+01
  1.792595232588E+01  1.809116307518E+01  1.828486626961E+01  1.847703264669E+01
  1.869672714490E+01  1.890340464234E+01  1.913392844366E+01  1.939071132193E+01
  1.967631689807E+01  1.992736143575E+01  2.020000481338E+01  2.049570448423E+01
  2.081592797367E+01  2.116212924813E+01  2.153571875264E+01  2.183468848506E+01
  2.215033102174E+01  2.248310996463E+01  2.283342114086E+01  2.320157558061E+01
  2.358778018332E+01  2.399211590020E+01  2.441451327832E+01  2.485472523819E+01
  2.531229699702E+01  2.578653310495E+01  2.611148104154E+01  2.644304577096E+01
  2.678079567578E+01  2.712422607067E+01  2.747275349386E+01  2.782570987026E+01
  2.818233659185E+01  2.854177857025E+01  2.890307832775E+01  2.926517020421E+01
  2.962687477073E+01  2.998689355447E+01  3.034380419380E+01  3.069605615906E+01
  3.104196718964E+01  3.137972061548E+01  3.170736374714E+01  3.202280753534E+01
  3.232382771582E+01  3.260806766978E+01  3.287304324146E+01  3.311614976334E+01
  3.333467154396E+01  3.352579407262E+01  3.368661918864E+01  3.381418344784E+01
  3.390547989528E+01  3.395748341900E+01  3.396717981295E+01  3.395523188320E+01
  3.393159861760E+01  3.389592155121E+01  3.384784973218E+01  3.378704106441E+01
  3.371316370251E+01  3.362589749635E+01  3.352493548191E+01  3.340998541452E+01
  3.328077134001E+01  3.313703519861E+01  3.297853845595E+01  3.280506375464E+01
  3.261641657935E+01  3.241242692761E+01  3.219295097785E+01  3.195787274539E+01
  3.170710571667E+01  3.144059445103E+01  3.115831613890E+01  3.086028210465E+01
  3.054653924157E+01  3.021717136633E+01  2.987230047936E+01  2.951208791752E+01
  2.913673538516E+01  2.874648584925E+01  2.834162428449E+01  2.792247825404E+01
  2.748941831214E+01  2.704285821479E+01  2.658325492549E+01  2.611110840365E+01
  2.562696116407E+01  2.513139759709E+01  2.462504304016E+01  2.410856259319E+01
  2.358265967147E+01  2.304807429216E+01  2.250558109211E+01  2.195598707717E+01
  2.140012910567E+01  2.083887111114E+01  2.027310107227E+01  1.970372774090E+01
  1.913167714182E+01  1.855788886094E+01  1.798331214191E+01  1.740890181368E+01
  1.683561407480E+01  1.626440216300E+01  1.569621194115E+01  1.513197743305E+01
  1.457261634496E+01  1.401902561014E+01  1.347207699536E+01  1.293261280927E+01
  1.240144175300E+01  1.187933495325E+01  1.136702221753E+01  1.086518855028E+01
  1.037447096633E+01  9.895455636258E+00  9.428675394778E+00  8.974607639996E+00
  8.533672647064E+00  8.106232315175E+00  7.692589361767E+00  7.292986972341E+00
  6.907608908610E+00  6.536580071801E+00  6.179967512005E+00  5.837781868587E+00
  5.509979220974E+00  5.196463323777E+00  4.897088195208E+00  4.611661023383E+00
  4.339945351320E+00  4.081664498424E+00  3.836505174035E+00  3.604121237296E+00
  3.384137557105E+00  3.176153926389E+00  2.979748986228E+00  2.794484117488E+00
  2.619907260469E+00  2.455556626591E+00  2.300964270135E+00  2.155659650966E+00
  2.019173630365E+00  1.891042602157E+00  1.770811016084E+00  1.658033666180E+00
  1.552277724053E+00  1.453124525304E+00  1.360171110164E+00  1.273031523967E+00
  1.191337884160E+00  1.114741221487E+00  1.042912103293E+00  9.755410467736E-01
  9.123387295397E-01  8.530360042448E-01  7.973837233656E-01  7.451523797678E-01
  6.961315685312E-01  6.501292758423E-01  6.069710016986E-01  5.664987247859E-01
  5.285690917597E-01  4.930490929041E-01  4.598106215911E-01  4.287304598041E-01
  3.996901801899E-01  3.725760868291E-01  3.472791472737E-01  3.236949165640E-01
  3.017234539395E-01  2.812692329529E-01  2.622410456901E-01  2.445519017911E-01
  2.281189229517E-01  2.128632335721E-01  1.987098481984E-01  1.855875563807E-01
  1.734288055464E-01  1.621695824579E-01  1.517492937924E-01  1.421106463451E-01
  1.331995273198E-01  1.249648851246E-01  1.173586110446E-01  1.103354221109E-01
  1.038527454234E-01  9.787060412306E-02  9.235150513780E-02  8.726032875241E-02
  8.256421997682E-02  7.823248161624E-02  7.423646888546E-02  7.054948536988E-02
  6.714668012892E-02  6.400494577620E-02  6.110281746941E-02  5.842037290776E-02
  5.593913366822E-02  5.364196849894E-02  5.151299949435E-02  4.953751234751E-02
  4.770187203430E-02  4.599344525485E-02  4.440053068366E-02  4.291229755936E-02
  4.151873245130E-02  4.021059331423E-02  3.897936935575E-02  3.781724493226E-02
  3.671706571352E-02  3.567230566797E-02  3.467703390275E-02  3.372588090619E-02
  3.281400417520E-02  3.193705350813E-02  3.109113639737E-02  3.027278399085E-02
  2.947891804735E-02  2.870681922478E-02  2.795409694147E-02  2.721866095757E-02
  2.649869474489E-02  2.579263065251E-02  2.509912683142E-02  2.441704585160E-02
  2.374543492663E-02  2.308350765070E-02  2.243062714876E-02  2.178629054060E-02
  2.115011462170E-02  2.052182266826E-02  1.990123227826E-02  1.928824416590E-02
  1.868283183233E-02  1.808503204088E-02  1.749493603046E-02  1.691268140596E-02
  1.633844464963E-02  1.577243420252E-02  1.521488406977E-02  1.466604790877E-02
  1.412619356366E-02  1.359559801480E-02  1.307454271610E-02  1.256330929813E-02
  1.206217561852E-02  1.157141214591E-02  1.109127866641E-02  1.062202130510E-02
  1.016386985720E-02  9.717035425233E-03  9.281708359472E-03  8.858056499252E-03
  8.446223712287E-03  8.046328728060E-03  7.658464259882E-03  7.282696408271E-03
  6.919064336184E-03  6.567580204361E-03  6.228229352827E-03  5.900970712491E-03
  5.585737428955E-03  5.282437679084E-03  4.990955659709E-03  4.711152728263E-03
  4.442868667520E-03  4.185923064311E-03  3.940116769280E-03  3.705233422278E-03
  3.481041022387E-03  3.267293523725E-03  3.063732439545E-03  2.870088438574E-03
  2.686082919114E-03  2.511429548012E-03  2.345835753242E-03  2.189004160432E-03
  2.040633965264E-03  1.900422235154E-03  1.768065135058E-03  1.643259073605E-03
  1.525701766979E-03  1.415093219114E-03  1.311136617798E-03  1.213539147199E-03
  1.122012718130E-03  1.036274618087E-03  9.560480836625E-04  8.810627984888E-04
  8.110553202179E-04  7.457694403989E-04  6.849564813331E-04  6.283755341448E-04
  5.757936423915E-04  5.269859355567E-04  4.817357167261E-04  4.398345086578E-04
  4.010820623171E-04  3.652863317695E-04  3.322634191179E-04  3.018374929347E-04
  2.738406833922E-04  2.481129570313E-04  2.245019738493E-04  2.028629291226E-04
  1.830583821333E-04  1.649580737292E-04  1.484387344272E-04  1.333838845720E-04
  1.196836278862E-04  1.072344395959E-04  9.593895018705E-05  8.570572572190E-05
  7.644904566610E-05  6.808867882311E-05  6.054965838418E-05  5.376205662525E-05
  4.766075994587E-05  4.218524496153E-05  3.727935626131E-05  3.289108645180E-05
  2.897235909600E-05  2.547881513330E-05  2.236960334425E-05  1.960717539650E-05
  1.715708597673E-05  1.498779847669E-05  1.307049666021E-05  1.137890269287E-05
  9.889101867327E-06  8.579374305787E-06  7.430033868421E-06  6.423274442235E-06
  5.543023731436E-06  4.774804617323E-06  4.105604104717E-06  3.523749823262E-06
  3.018794006352E-06  2.581404828392E-06  2.203264942956E-06  1.876977030498E-06
  1.595976134651E-06  1.354448541007E-06  1.147256931470E-06  9.698715307620E-07
  8.183069492943E-07  6.890644180941E-07  5.790791065892E-07  4.856722124946E-07
  4.065075144598E-07  3.395520822292E-07  2.830408454707E-07  2.354447308278E-07
  1.954420868003E-07  1.618931274674E-07  1.338171385210E-07  1.103722023197E-07
  9.083721244454E-08  7.459596231838E-08  6.112310663717E-08  4.997180848198E-08
  4.076289888204E-08  3.317538915741E-08  2.693818947813E-08  2.182289965320E-08
  1.763755014178E-08  1.422118261371E-08  1.143917004576E-08  9.179186304925E-09
  7.347744435875E-09  5.867231439058E-09  4.673375213062E-09  3.713086558117E-09
  2.942625723083E-09  2.326048955244E-09  1.833895913417E-09  1.442083665370E-09
  1.130977346332E-09  8.846114433542E-10  6.900391269102E-10  5.367901124784E-10
  4.164202357309E-10  3.221382989376E-10  2.484978250561E-10  1.911431697677E-10
  1.466010184589E-10  1.121096608923E-10  8.547961504646E-11  6.498018531045E-11
  4.924740891662E-11  3.720958627545E-11  2.802722206054E-11  2.104473906261E-11
  1.575177899818E-11  1.175228514455E-11  8.739881044538E-12  6.478326508591E-12
  4.786054537651E-12  3.523977384437E-12  2.585902639534E-12  1.891026039569E-12
  1.378070997625E-12  1.000729369440E-12  7.241268573305E-13  5.220923993475E-13
  3.750561571101E-13  2.684372040578E-13  1.914113178815E-13  1.359727227893E-13
  9.622230926366E-14  6.782969019717E-14  4.762818067475E-14  3.331102696608E-14
  2.320445836105E-14  1.609879935168E-14  1.112328773191E-14  7.653660912744E-15
  5.244210180489E-15  3.578030043284E-15  2.430741762152E-15  1.644153113336E-15
  1.107214249918E-15  7.423079963162E-16  4.954233680636E-16  3.291434652033E-16
  2.176640080857E-16  1.432704358436E-16  9.385788346298E-17  6.119338514367E-17
  3.970386251445E-17  2.563482354606E-17  1.646915810191E-17  1.052762002043E-17
  6.695466831445E-18  4.236399904830E-18  2.666561376968E-18  1.669619567602E-18
  1.039841904019E-18  0.000000000000E+00  0.000000000000E+00  0.000000000000E+00
  0.000000000000E+00
</data>
</radfunc>
</valence-charge>
<semilocal-potentials set="scalar_relativistic">
<slps n="2" l="s" rc="1.20707706276">
<radfunc>
<data npts="256">
 -1.678610224169E+01 -1.678853358714E+01 -1.679556198206E+01 -1.680660800690E+01
 -1.682065533948E+01 -1.683703466727E+01 -1.685489490314E+01 -1.687180569986E+01
 -1.688704829711E+01 -1.690068745793E+01 -1.691176269358E+01 -1.691971110944E+01
 -1.692491389470E+01 -1.692642730852E+01 -1.692438805321E+01 -1.691931126615E+01
 -1.691075558739E+01 -1.690072119759E+01 -1.688786319296E+01 -1.687203715569E+01
 -1.685312407604E+01 -1.683570586655E+01 -1.681621043107E+01 -1.679460449342E+01
 -1.677085967577E+01 -1.674495080816E+01 -1.671685429881E+01 -1.669433217342E+01
 -1.667055599542E+01 -1.664551479700E+01 -1.661919670853E+01 -1.659158872797E+01
 -1.656267648246E+01 -1.653244395370E+01 -1.650087313063E+01 -1.646794354339E+01
 -1.643363162236E+01 -1.639790981281E+01 -1.637329608705E+01 -1.634803001403E+01
 -1.632209866402E+01 -1.629548715683E+01 -1.626817826072E+01 -1.624015191182E+01
 -1.621138464143E+01 -1.618184889773E+01 -1.615151224765E+01 -1.612033644555E+01
 -1.608827635666E+01 -1.605527872737E+01 -1.602128080093E+01 -1.598620878719E+01
 -1.594997621003E+01 -1.591248217580E+01 -1.587360963199E+01 -1.583322371595E+01
 -1.579117032776E+01 -1.574727509645E+01 -1.570134293817E+01 -1.565315842299E+01
 -1.560248716287E+01 -1.554907839884E+01 -1.549266889189E+01 -1.543298810629E+01
 -1.536976452118E+01 -1.530273273141E+01 -1.523164082815E+01 -1.519449904910E+01
 -1.515625741889E+01 -1.511689119928E+01 -1.507637759054E+01 -1.503469581562E+01
 -1.499182716671E+01 -1.494775501293E+01 -1.490246476893E+01 -1.485594382580E+01
 -1.480818144665E+01 -1.475916863063E+01 -1.470889794994E+01 -1.465736336529E+01
 -1.460456002592E+01 -1.455048406036E+01 -1.449513236433E+01 -1.443850239189E+01
 -1.438059195550E+01 -1.432139904000E+01 -1.426092163477E+01 -1.419915758737E+01
 -1.413610448118E+01 -1.407175953830E+01 -1.400611954850E+01 -1.393918082384E+01
 -1.387093917794E+01 -1.380138992848E+01 -1.373052792054E+01 -1.365834756882E+01
 -1.358484291554E+01 -1.351000770182E+01 -1.343383544936E+01 -1.335631954999E+01
 -1.327745336053E+01 -1.319723030065E+01 -1.311564395173E+01 -1.303268815496E+01
 -1.294835710737E+01 -1.286264545455E+01 -1.277554837940E+01 -1.268706168652E+01
 -1.259718188206E+01 -1.250590624945E+01 -1.241323292142E+01 -1.231916094947E+01
 -1.222369037201E+01 -1.212682228284E+01 -1.202855890223E+01 -1.192890365288E+01
 -1.182786124399E+01 -1.172543776671E+01 -1.162164080501E+01 -1.151647956662E+01
 -1.140996503889E+01 -1.130211017558E+01 -1.119293012080E+01 -1.108244247706E+01
 -1.097066762507E+01 -1.085762910327E+01 -1.074335405575E+01 -1.062787375712E+01
 -1.051122422331E+01 -1.039344691664E+01 -1.027458955320E+01 -1.015470701926E+01
 -1.003386240195E+01 -9.912128137419E+00 -9.789587276768E+00 -9.666334866851E+00
 -9.542479439268E+00 -9.418144596403E+00 -9.293470678808E+00 -9.168616493300E+00
 -9.043761076298E+00 -8.919105462174E+00 -8.794874422112E+00 -8.671318135191E+00
 -8.548713750413E+00 -8.427366796311E+00 -8.307612393675E+00 -8.189816227019E+00
 -8.074375231717E+00 -7.961717956404E+00 -7.852304564454E+00 -7.746626444163E+00
 -7.645205405029E+00 -7.548592413596E+00 -7.457366301781E+00 -7.369511478360E+00
 -7.282454851144E+00 -7.196265983804E+00 -7.110956945239E+00 -7.026540300897E+00
 -6.943028943754E+00 -6.860435885966E+00 -6.778774018307E+00 -6.698055792739E+00
 -6.618292789198E+00 -6.539495127612E+00 -6.461670695659E+00 -6.384824182129E+00
 -6.308955936247E+00 -6.234060714381E+00 -6.160126423899E+00 -6.087133023245E+00
 -6.015051778090E+00 -5.943845094452E+00 -5.873466512480E+00 -5.803869025377E+00
 -5.735044351377E+00 -5.667040119954E+00 -5.599841595641E+00 -5.533439957235E+00
 -5.467825704527E+00 -5.402989500683E+00 -5.338922119597E+00 -5.275614444575E+00
 -5.213057467037E+00 -5.151242285237E+00 -5.090160103000E+00 -5.029802228488E+00
 -4.970160072986E+00 -4.911225149642E+00 -4.852989072285E+00 -4.795443554885E+00
 -4.738580408507E+00 -4.682391542970E+00 -4.626868963446E+00 -4.572004770384E+00
 -4.517791158187E+00 -4.464220414112E+00 -4.411284917139E+00 -4.358977136810E+00
 -4.307289632019E+00 -4.256215049746E+00 -4.205746123710E+00 -4.155875672959E+00
 -4.106596600385E+00 -4.057901891214E+00 -4.009784611529E+00 -3.962237906907E+00
 -3.915255001297E+00 -3.868829196266E+00 -3.822953870726E+00 -3.777622481209E+00
 -3.732828562652E+00 -3.688565729505E+00 -3.644827676859E+00 -3.601608181134E+00
 -3.558901099906E+00 -3.516700370551E+00 -3.475000007682E+00 -3.433794099686E+00
 -3.393076804929E+00 -3.352842348278E+00 -3.313085018449E+00 -3.273799166405E+00
 -3.234979204751E+00 -3.196619607852E+00 -3.158714912336E+00 -3.121259717671E+00
 -3.084248686580E+00 -3.047676545180E+00 -3.011538082802E+00 -2.975828151543E+00
 -2.940541665612E+00 -2.905673600544E+00 -2.871218992343E+00 -2.837172936611E+00
 -2.803530587683E+00 -2.770287157785E+00 -2.737437916233E+00 -2.704978188662E+00
 -2.672903356281E+00 -2.641208855165E+00 -2.609890175566E+00 -2.578942861245E+00
 -2.548362508818E+00 -2.518144767123E+00 -2.488285336590E+00 -2.458779968632E+00
 -2.429624465035E+00 -2.400814677366E+00 -2.372346506381E+00 -2.344215901449E+00
 -2.316418859969E+00 -2.288951426814E+00 -2.261809693758E+00 -2.234989798929E+00
</data>
</radfunc>
</slps>
<slps n="2" l="p" rc="1.55069276272">
<radfunc>
<data npts="256">
 -2.332887678951E+01 -2.333107362468E+01 -2.333740094393E+01 -2.334727718122E+01
 -2.335969779040E+01 -2.337393758476E+01 -2.338907007921E+01 -2.340285608623E+01
 -2.341458354103E+01 -2.342412127365E+01 -2.343057062466E+01 -2.343348755254E+01
 -2.343260465064E+01 -2.342775649889E+01 -2.341820533496E+01 -2.340561839708E+01
 -2.338840465443E+01 -2.337015346839E+01 -2.334804665203E+01 -2.332181137836E+01
 -2.329118455566E+01 -2.326334815487E+01 -2.323240495401E+01 -2.319822129772E+01
 -2.316065890088E+01 -2.311957229887E+01 -2.307480628806E+01 -2.303871697201E+01
 -2.300038817578E+01 -2.295973879410E+01 -2.291668200938E+01 -2.287112475042E+01
 -2.282296712423E+01 -2.277210179120E+01 -2.271841324553E+01 -2.266177695295E+01
 -2.260205828725E+01 -2.253911119368E+01 -2.249527488759E+01 -2.244988245596E+01
 -2.240287970632E+01 -2.235420867922E+01 -2.230380716657E+01 -2.225160814614E+01
 -2.219753911893E+01 -2.214152133563E+01 -2.208346889755E+01 -2.202328771783E+01
 -2.196087433063E+01 -2.189611453951E+01 -2.182888190310E+01 -2.175903606575E+01
 -2.168642095634E+01 -2.161086289765E+01 -2.153216869477E+01 -2.145012380175E+01
 -2.136449069984E+01 -2.127500765599E+01 -2.118138805992E+01 -2.108332055607E+01
 -2.098047018329E+01 -2.087248070098E+01 -2.075897820706E+01 -2.063957603878E+01
 -2.051388079485E+01 -2.038149914408E+01 -2.024204491670E+01 -2.016954854419E+01
 -2.009514584555E+01 -2.001879339737E+01 -1.994044927078E+01 -1.986007310964E+01
 -1.977762617192E+01 -1.969307133340E+01 -1.960637305350E+01 -1.951749730491E+01
 -1.942641146962E+01 -1.933308420534E+01 -1.923748528717E+01 -1.913958543036E+01
 -1.903935610050E+01 -1.893676931776E+01 -1.883179746212E+01 -1.872441308593E+01
 -1.861458874021E+01 -1.850229682015E+01 -1.838750943461E+01 -1.827019830378E+01
 -1.815033468805E+01 -1.802788935029E+01 -1.790283255305E+01 -1.777513409135E+01
 -1.764476336095E+01 -1.751168946167E+01 -1.737588133488E+01 -1.723730793376E+01
 -1.709593842529E+01 -1.695174242229E+01 -1.680469024447E+01 -1.665475320727E+01
 -1.650190393759E+01 -1.634611671592E+01 -1.618736784439E+01 -1.602563604114E+01
 -1.586090286110E+01 -1.569315314419E+01 -1.552237549193E+01 -1.534856277391E+01
 -1.517171266570E+01 -1.499182822028E+01 -1.480891847482E+01 -1.462299909523E+01
 -1.443409306046E+01 -1.424223138909E+01 -1.404745390993E+01 -1.384981007882E+01
 -1.364935984309E+01 -1.344617455472E+01 -1.324033793274E+01 -1.303194707465E+01
 -1.282111351545E+01 -1.260796433174E+01 -1.239264328698E+01 -1.217531201181E+01
 -1.195615121149E+01 -1.173536188961E+01 -1.151316657433E+01 -1.128981052957E+01
 -1.106556292959E+01 -1.084071797048E+01 -1.061559588674E+01 -1.039054383514E+01
 -1.016593660152E+01 -9.942177079470E+00 -9.719696462472E+00 -9.498954084428E+00
 -9.280436836739E+00 -9.064658084716E+00 -8.852156002011E+00 -8.643491239980E+00
 -8.439243849959E+00 -8.240009381203E+00 -8.046394086350E+00 -7.859009180396E+00
 -7.678464118722E+00 -7.505358885077E+00 -7.340275311333E+00 -7.183767487112E+00
 -7.036351358042E+00 -6.898493655195E+00 -6.770600343496E+00 -6.653004821216E+00
 -6.545956143651E+00 -6.449607545006E+00 -6.364006025221E+00 -6.289083666737E+00
 -6.224647886577E+00 -6.170369885138E+00 -6.125784298476E+00 -6.090286129142E+00
 -6.063130346148E+00 -6.043433851940E+00 -6.030179855562E+00 -6.022224568844E+00
 -6.018306086416E+00 -6.017055264650E+00 -6.017008402391E+00 -6.016621554739E+00
 -6.014286387916E+00 -6.008347612285E+00 -5.997122211930E+00 -5.978920917122E+00
 -5.952072629270E+00 -5.914952789925E+00 -5.866016337702E+00 -5.803844779434E+00
 -5.735044351377E+00 -5.667040119954E+00 -5.599841595641E+00 -5.533439957235E+00
 -5.467825704527E+00 -5.402989500683E+00 -5.338922119597E+00 -5.275614444575E+00
 -5.213057467037E+00 -5.151242285237E+00 -5.090160103000E+00 -5.029802228488E+00
 -4.970160072986E+00 -4.911225149642E+00 -4.852989072285E+00 -4.795443554885E+00
 -4.738580408507E+00 -4.682391542970E+00 -4.626868963446E+00 -4.572004770384E+00
 -4.517791158187E+00 -4.464220414112E+00 -4.411284917139E+00 -4.358977136810E+00
 -4.307289632019E+00 -4.256215049746E+00 -4.205746123710E+00 -4.155875672959E+00