<?xml version="1.0" encoding="UTF-8" ?>
<psml version="1.1" energy_unit="hartree" length_unit="bohr"
 uuid="90a7b610-470c-11e8-6ca5-38befdef5a12"
 xmlns="http://esl.cecam.org/PSML/ns/1.1">
<provenance creator="ONCVPSP-3.3.0+psml-3.3.0-73 (fully-relativistic)"
 date="2018-04-23">
<annotation action="semilocal-pseudopotential-generation"
 action-cont="projectors-generation" />
<input-file name="oncvpsp-input">
<![CDATA[# atsym z nc nv iexc psfile
Sn 50 8 3 4 both
# n l f
1 0 2.0
2 0 2.0
2 1 6.0
3 0 2.0
3 1 6.0
3 2 10.0
4 0 2.0
4 1 6.0
4 2 10.0
5 0 2.0
5 1 2.0
# lmax
2
# l rc ep ncon nbas qcut
0 2.25 0.0 4 7 3.4
1 2.6 0.0 4 7 3.4
2 1.85 0.0 4 8 8.4
# lloc lpopt rc5 dvloc0
4 5 1.85 0.0
# l nproj debl
0 2 1.9
1 2 2.5
2 2 2.0
# icmod fcfact
3 6.5 1.31
# epsh1 epsh2 depsh
-12.0 12.0 0.02
# rlmax drl
6.0 0.01
 0
]]>
</input-file>
</provenance>
<pseudo-atom-spec atomic-label="Sn" atomic-number="50" z-pseudo="14"
 flavor="Hamann&apos;s oncvpsp" relativity="dirac" spin-dft="no"
 core-corrections="yes">
<annotation pseudo-energy="-67.5588165133" />
<exchange-correlation>
<annotation oncvpsp-xc-code="4" oncvpsp-xc-type="GGA -- Perdew-Burke-Ernzerhof" />
<libxc-info number-of-functionals="2">
<functional name="Perdew, Burke &amp; Ernzerhof (GGA)" type="exchange" id="101" />
<functional name="Perdew, Burke &amp; Ernzerhof (GGA)" type="correlation"
 id="130" />
</libxc-info>
</exchange-correlation>
<valence-configuration total-valence-charge="14">
<shell n="4" l="d" occupation="10" />
<shell n="5" l="s" occupation="2" />
<shell n="5" l="p" occupation="2" />
</valence-configuration>
</pseudo-atom-spec>
<grid npts="457">
<annotation type="sampled from oncvpsp log grid"
 recipe="r(i:1..N) = r1*exp(a*(i-1)) + r=0; resampled"
 recipe-cont="r1: scale; a: step" scale="0.100000000000E-04"
 step="0.119285708653E-01" delta="0.500000000000E-02" rmax="44.3197745331" />
<grid-data>
  0.000000000000E+00  5.000886690540E-03  1.010874525337E-02  1.516472982503E-02
  2.019142533776E-02  2.532775607628E-02  3.065384203313E-02  3.579575917496E-02
  4.081475699656E-02  4.598565112489E-02  5.119728757278E-02  5.632368393398E-02
  6.196338756004E-02  6.735948224037E-02  7.322549696456E-02  7.865845337823E-02
  8.449450730050E-02  8.968731867555E-02  9.519926665294E-02  1.010499645334E-01
  1.072602309997E-01  1.125021385341E-01  1.180002229791E-01  1.237670039391E-01
  1.298156128636E-01  1.361598229479E-01  1.428140804965E-01  1.480173298599E-01
  1.534101529953E-01  1.589994567820E-01  1.647923997425E-01  1.707964012112E-01
  1.770191508363E-01  1.834686184287E-01  1.901530641691E-01  1.970810491874E-01
  2.042614465274E-01  2.117034525111E-01  2.168148206685E-01  2.220495976987E-01
  2.274107631856E-01  2.329013686519E-01  2.385245392967E-01  2.442834757734E-01
  2.501814560125E-01  2.562218370865E-01  2.624080571211E-01  2.687436372522E-01
  2.752321836300E-01  2.818773894716E-01  2.886830371630E-01  2.956530004123E-01
  3.027912464542E-01  3.101018383086E-01  3.175889370927E-01  3.252568043899E-01
  3.331098046751E-01  3.411524077992E-01  3.493891915331E-01  3.578248441734E-01
  3.664641672112E-01  3.753120780643E-01  3.843736128771E-01  3.936539293864E-01
  4.031583098575E-01  4.128921640907E-01  4.228610325005E-01  4.279353648905E-01
  4.330705892692E-01  4.382674363404E-01  4.435266455765E-01  4.488489653234E-01
  4.542351529073E-01  4.596859747422E-01  4.652022064391E-01  4.707846329164E-01
  4.764340485114E-01  4.821512570935E-01  4.879370721786E-01  4.937923170448E-01
  4.997178248493E-01  5.057144387475E-01  5.117830120125E-01  5.179244081566E-01
  5.241395010545E-01  5.304291750672E-01  5.367943251680E-01  5.432358570700E-01
  5.497546873548E-01  5.563517436031E-01  5.630279645263E-01  5.697843001006E-01
  5.766217117018E-01  5.835411722423E-01  5.905436663092E-01  5.976301903049E-01
  6.048017525885E-01  6.120593736196E-01  6.194040861030E-01  6.268369351363E-01
  6.343589783579E-01  6.419712860982E-01  6.496749415314E-01  6.574710408298E-01
  6.653606933197E-01  6.733450216396E-01  6.814251618992E-01  6.896022638420E-01
  6.978774910081E-01  7.062520209002E-01  7.147270451510E-01  7.233037696928E-01
  7.319834149291E-01  7.407672159083E-01  7.496564224992E-01  7.586522995692E-01
  7.677561271640E-01  7.769692006900E-01  7.862928310983E-01  7.957283450714E-01
  8.052770852123E-01  8.149404102349E-01  8.247196951577E-01  8.346163314996E-01
  8.446317274776E-01  8.547673082073E-01  8.650245159058E-01  8.754048100966E-01
  8.859096678178E-01  8.965405838316E-01  9.072990708376E-01  9.181866596876E-01
  9.292048996039E-01  9.403553583991E-01  9.516396226999E-01  9.630592981723E-01
  9.746160097504E-01  9.863114018674E-01  9.981471386898E-01  1.010124904354E+00
  1.022246403206E+00  1.034513360045E+00  1.046927520365E+00  1.059490650610E+00
  1.072204538417E+00  1.085070992878E+00  1.098091844793E+00  1.111268946930E+00
  1.124604174293E+00  1.138099424385E+00  1.151756617477E+00  1.165577696887E+00
  1.179564629250E+00  1.193719404801E+00  1.208044037658E+00  1.222540566110E+00
  1.237211052904E+00  1.252057585538E+00  1.267082276565E+00  1.282287263884E+00
  1.297674711050E+00  1.313246807583E+00  1.329005769274E+00  1.344953838505E+00
  1.361093284567E+00  1.377426403982E+00  1.393955520830E+00  1.410682987080E+00
  1.427611182925E+00  1.444742517120E+00  1.462079427325E+00  1.479624380453E+00
  1.497379873019E+00  1.515348431495E+00  1.533532612673E+00  1.551935004025E+00
  1.570558224073E+00  1.589404922762E+00  1.608477781835E+00  1.627779515217E+00
  1.647312869400E+00  1.667080623833E+00  1.687085591319E+00  1.707330618414E+00
  1.727818585835E+00  1.748552408865E+00  1.769535037772E+00  1.790769458225E+00
  1.812258691724E+00  1.834005796024E+00  1.856013865577E+00  1.878286031964E+00
  1.900825464347E+00  1.923635369919E+00  1.946718994358E+00  1.970079622291E+00
  1.993720577758E+00  2.017645224691E+00  2.041856967388E+00  2.066359250996E+00
  2.091155562008E+00  2.116249428752E+00  2.141644421897E+00  2.167344154960E+00
  2.193352284820E+00  2.219672512237E+00  2.246308582384E+00  2.273264285373E+00
  2.300543456797E+00  2.328149978279E+00  2.356087778018E+00  2.384360831355E+00
  2.412973161331E+00  2.441928839267E+00  2.471231985338E+00  2.500886769162E+00
  2.530897410392E+00  2.561268179317E+00  2.592003397468E+00  2.623107438238E+00
  2.654584727497E+00  2.686439744227E+00  2.718677021158E+00  2.751301145412E+00
  2.784316759156E+00  2.817728560266E+00  2.851541302990E+00  2.885759798625E+00
  2.920388916209E+00  2.955433583203E+00  2.990898786202E+00  3.026789571636E+00
  3.063111046496E+00  3.099868379054E+00  3.137066799603E+00  3.174711601198E+00
  3.212808140412E+00  3.251361838097E+00  3.290378180154E+00  3.329862718316E+00
  3.369821070936E+00  3.410258923787E+00  3.451182030873E+00  3.492596215243E+00
  3.534507369826E+00  3.576921458264E+00  3.619844515763E+00  3.663282649952E+00
  3.707242041752E+00  3.751728946253E+00  3.796749693608E+00  3.842310689931E+00
  3.888418418210E+00  3.935079439229E+00  3.982300392499E+00  4.030087997209E+00
  4.078449053176E+00  4.127390441814E+00  4.176919127116E+00  4.227042156641E+00
  4.277766662521E+00  4.329099862471E+00  4.381049060821E+00  4.433621649551E+00
  4.486825109345E+00  4.540667010657E+00  4.595155014785E+00  4.650296874963E+00
  4.706100437462E+00  4.762573642712E+00  4.819724526424E+00  4.877561220741E+00
  4.936091955390E+00  4.995325058855E+00  5.055268959561E+00  5.115932187076E+00
  5.177323373321E+00  5.239451253801E+00  5.302324668846E+00  5.365952564873E+00
  5.430343995651E+00  5.495508123599E+00  5.561454221082E+00  5.628191671735E+00
  5.695729971796E+00  5.764078731457E+00  5.833247676235E+00  5.903246648350E+00
  5.974085608130E+00  6.045774635427E+00  6.118323931053E+00  6.191743818225E+00
  6.266044744044E+00  6.341237280972E+00  6.417332128344E+00  6.494340113884E+00
  6.572272195251E+00  6.651139461594E+00  6.730953135133E+00  6.811724572755E+00
  6.893465267628E+00  6.976186850839E+00  7.059901093049E+00  7.144619906166E+00
  7.230355345040E+00  7.317119609180E+00  7.404925044490E+00  7.493784145024E+00
  7.583709554765E+00  7.674714069422E+00  7.766810638255E+00  7.860012365914E+00
  7.954332514305E+00  8.049784504477E+00  8.146381918530E+00  8.244138501553E+00
  8.343068163571E+00  8.443184981534E+00  8.544503201313E+00  8.647037239728E+00
  8.750801686605E+00  8.855811306844E+00  8.962081042526E+00  9.069626015037E+00
  9.178461527217E+00  9.288603065544E+00  9.400066302330E+00  9.512867097958E+00
  9.627021503134E+00  9.742545761171E+00  9.859456310305E+00  9.977769786029E+00
  1.009750302346E+01  1.021867305974E+01  1.034129713646E+01  1.046539270210E+01
  1.059097741452E+01  1.071806914350E+01  1.084668597322E+01  1.097684620490E+01
  1.110856835936E+01  1.124187117967E+01  1.137677363382E+01  1.151329491743E+01
  1.165145445644E+01  1.179127190992E+01  1.193276717284E+01  1.207596037891E+01
  1.222087190346E+01  1.236752236630E+01  1.251593263469E+01  1.266612382631E+01
  1.281811731223E+01  1.297193471997E+01  1.312759793661E+01  1.328512911185E+01
  1.344455066119E+01  1.360588526913E+01  1.376915589236E+01  1.393438576307E+01
  1.410159839222E+01  1.427081757293E+01  1.444206738380E+01  1.461537219241E+01
  1.479075665872E+01  1.496824573862E+01  1.514786468749E+01  1.532963906374E+01
  1.551359473250E+01  1.569975786929E+01  1.588815496372E+01  1.607881282329E+01
  1.627175857717E+01  1.646701968009E+01  1.666462391625E+01  1.686459940325E+01
  1.706697459609E+01  1.727177829124E+01  1.747903963074E+01  1.768878810631E+01
  1.790105356358E+01  1.811586620634E+01  1.833325660082E+01  1.855325568003E+01
  1.877589474819E+01  1.900120548517E+01  1.922921995099E+01  1.945997059040E+01
  1.969349023749E+01  1.992981212034E+01  2.016896986578E+01  2.041099750417E+01
  2.065592947422E+01  2.090380062791E+01  2.115464623545E+01  2.140850199027E+01
  2.166540401416E+01  2.192538886233E+01  2.218849352867E+01  2.245475545102E+01
  2.272421251643E+01  2.299690306663E+01  2.327286590343E+01  2.355214029427E+01
  2.383476597780E+01  2.412078316953E+01  2.441023256757E+01  2.470315535838E+01
  2.499959322268E+01  2.529958834135E+01  2.560318340145E+01  2.591042160226E+01
  2.622134666149E+01  2.653600282143E+01  2.685443485529E+01  2.717668807355E+01
  2.750280833043E+01  2.783284203040E+01  2.816683613476E+01  2.850483816838E+01
  2.884689622640E+01  2.919305898112E+01  2.954337568889E+01  2.989789619716E+01
  3.025667095152E+01  3.061975100294E+01  3.098718801498E+01  3.135903427116E+01
  3.173534268241E+01  3.211616679460E+01  3.250156079613E+01  3.289157952569E+01
  3.328627847999E+01  3.368571382175E+01  3.408994238762E+01  3.449902169627E+01
  3.491300995662E+01  3.533196607610E+01  3.575594966902E+01  3.618502106504E+01
  3.661924131782E+01  3.705867221364E+01  3.750337628020E+01  3.795341679556E+01
  3.840885779711E+01  3.886976409068E+01  3.933620125976E+01  3.980823567488E+01
  4.028593450298E+01  4.076936571702E+01  4.125859810562E+01  4.175370128289E+01
  4.225474569828E+01  4.276180264666E+01  4.327494427842E+01  4.379424360976E+01
  4.431977453308E+01
</grid-data>
</grid>
<valence-charge total-charge="14" is-unscreening-charge="yes"
 rescaled-to-z-pseudo="no">
<radfunc>
<data npts="457">
  2.114952090943E-03  2.117779213776E-03  2.129191085554E-03  2.157003089963E-03
  2.214147925539E-03  2.321979498381E-03  2.513196511834E-03  2.806115131360E-03
  3.229667816732E-03  3.849372873295E-03  4.709994094395E-03  5.839950626852E-03
  7.475459585080E-03  9.498236997975E-03  1.229667695516E-02  1.553560032965E-02
  1.981340517764E-02  2.440822222648E-02  3.019893388272E-02  3.749392780100E-02
  4.667936807533E-02  5.570943848647E-02  6.655710552453E-02  7.958123411982E-02
  9.520896305912E-02  1.139478193521E-01  1.363996893088E-01  1.560990744025E-01
  1.786320725914E-01  2.043911488933E-01  2.338194323893E-01  2.674163708039E-01
  3.057437989943E-01  3.494323931652E-01  3.991884615368E-01  4.558009953928E-01
  5.201488708720E-01  5.932080504243E-01  6.472826555801E-01  7.060537747467E-01
  7.698911358750E-01  8.391878048702E-01  9.143607557118E-01  9.958512896183E-01
  1.084125267780E+00  1.179673117523E+00  1.283009566780E+00  1.394673056488E+00
  1.515224775047E+00  1.645247253320E+00  1.785342452980E+00  1.936129275389E+00
  2.098240412831E+00  2.272318459021E+00  2.459011191597E+00  2.658965936148E+00
  2.872822919503E+00  3.101207520025E+00  3.344721324939E+00  3.603931909869E+00
  3.879361264390E+00  4.171472800131E+00  4.480656895664E+00  4.807214955713E+00
  5.151341992024E+00  5.513107770251E+00  5.892436612284E+00  6.088618518372E+00
  6.289085997088E+00  6.493778989052E+00  6.702624165916E+00  6.915534196429E+00
  7.132407009966E+00  7.353125061200E+00  7.577554600000E+00  7.805544951009E+00
  8.036927807803E+00  8.271516546914E+00  8.509105567445E+00  8.749469662435E+00
  8.992363428540E+00  9.237520721033E+00  9.484654161539E+00  9.733454706296E+00
  9.983591283132E+00  1.023471050567E+01  1.048643647363E+01  1.073837066822E+01
  1.099009195216E+01  1.124115668345E+01  1.149109895286E+01  1.173943095434E+01
  1.198564349798E+01  1.222920667490E+01  1.246957068277E+01  1.270616682092E+01
  1.293840866265E+01  1.316569341237E+01  1.338740345396E+01  1.360290809568E+01
  1.381156551614E+01  1.401272491415E+01  1.420572886383E+01  1.438991587484E+01
  1.456462315526E+01  1.472918957316E+01  1.488295881005E+01  1.502528269743E+01
  1.515552472479E+01  1.527306370487E+01  1.537729757907E+01  1.546764734293E+01
  1.554356106872E+01  1.560451799907E+01  1.565003268247E+01  1.567965911883E+01
  1.569299487988E+01  1.568968516721E+01  1.566942676745E+01  1.563197186277E+01
  1.557713165211E+01  1.550477973799E+01  1.541485523193E+01  1.530736553187E+01
  1.518238872448E+01  1.504007556660E+01  1.488065100122E+01  1.470441516611E+01
  1.451174385609E+01  1.430308840388E+01  1.407897494962E+01  1.384000307434E+01
  1.358684377952E+01  1.332023680195E+01  1.304098726104E+01  1.274996164450E+01
  1.244808314727E+01  1.213632638816E+01  1.181571153856E+01  1.148729790715E+01
  1.115217703467E+01  1.081146536198E+01  1.046629654359E+01  1.011781348721E+01
  9.767160206828E+00  9.415473583121E+00  9.063875129429E+00  8.713462864821E+00
  8.365303397002E+00  8.020424317381E+00  7.679807008183E+00  7.344379957051E+00
  7.015012668186E+00  6.692510250759E+00  6.377608755207E+00  6.070971316285E+00
  5.773185148586E+00  5.484759426025E+00  5.206124061703E+00  4.937629389114E+00
  4.679546730160E+00  4.432069820254E+00  4.195317046464E+00  3.969334441348E+00
  3.754099363448E+00  3.549524785443E+00  3.355464103117E+00  3.171716372630E+00
  2.998031880316E+00  2.834117948216E+00  2.679644879880E+00  2.534251954334E+00
  2.397553381345E+00  2.269144137867E+00  2.148605613476E+00  2.035511001259E+00
  1.929430379693E+00  1.829935439978E+00  1.736603821922E+00  1.649023029320E+00
  1.566793902784E+00  1.489533633938E+00  1.416878309865E+00  1.348484980800E+00
  1.284033247451E+00  1.223226367461E+00  1.165791883599E+00  1.111481779840E+00
  1.060072175819E+00  1.011362575649E+00  9.651746937798E-01  9.213501545960E-01
  8.797451137512E-01  8.402241047687E-01  8.026591399822E-01  7.669304931105E-01
  7.329260934028E-01  7.005413536395E-01  6.696788701784E-01  6.402480822459E-01
  6.121648922202E-01  5.853512557226E-01  5.597347511107E-01  5.352481383398E-01
  5.118289173219E-01  4.894188958316E-01  4.679637766781E-01  4.474127732861E-01
  4.277183406693E-01  4.088362692519E-01  3.907259703991E-01  3.733502685301E-01
  3.566749764819E-01  3.406686209726E-01  3.253021137320E-01  3.105484389402E-01
  2.963823534526E-01  2.827801066230E-01  2.697191855855E-01  2.571780914559E-01
  2.451361970369E-01  2.335738316397E-01  2.224724992256E-01  2.118148331337E-01
  2.015844399826E-01  1.917658368864E-01  1.823443640622E-01  1.733061088101E-01
  1.646378353764E-01  1.563269208549E-01  1.483612968492E-01  1.407293966061E-01
  1.334201073047E-01  1.264227272237E-01  1.197269274590E-01  1.133227178974E-01
  1.072004171474E-01  1.013506261315E-01  9.576420505211E-02  9.043225345402E-02
  8.534609311167E-02  8.049725348424E-02  7.587745948985E-02  7.147862136353E-02
  6.729282637563E-02  6.331233219982E-02  5.952956173262E-02  5.593709917940E-02
  5.252768723375E-02  4.929422519021E-02  4.622976784180E-02  4.332752502573E-02
  4.058086169174E-02  3.798329837892E-02  3.552851199499E-02  3.321033680568E-02
  3.102276554673E-02  2.895995058321E-02  2.701620504819E-02  2.518600390034E-02
  2.346398484809E-02  2.184494909551E-02  2.032386187162E-02  1.889585271183E-02
  1.755621546604E-02  1.630040801448E-02  1.512405167753E-02  1.402293031125E-02
  1.299298908540E-02  1.203033294504E-02  1.113122476121E-02  1.029208317972E-02
  9.509480180682E-03  8.780138363969E-03  8.100927978586E-03  7.468863715724E-03
  6.881101286976E-03  6.334933810350E-03  5.827788027530E-03  5.357220376230E-03
  4.920912941608E-03  4.516669310467E-03  4.142410351488E-03  3.796169943999E-03
  3.476090676850E-03  3.180419537871E-03  2.907503613108E-03  2.655785813745E-03
  2.423800647135E-03  2.210170046934E-03  2.013599275816E-03  1.832872912743E-03
  1.666850935291E-03  1.514464906065E-03  1.374714270808E-03  1.246662774480E-03
  1.129435000256E-03  1.022213035170E-03  9.242332649765E-04  8.347832997494E-04
  7.531990307043E-04  6.788618178788E-04  6.111958074580E-04  5.496653768272E-04
  4.937727047977E-04  4.430554639159E-04  3.970846313105E-04  3.554624141752E-04
  3.178202857024E-04  2.838171270816E-04  2.531374710555E-04  2.254898424624E-04
  2.006051912004E-04  1.782354131004E-04  1.581519542949E-04  1.401444948070E-04
  1.240197072463E-04  1.096000866840E-04  9.672284797771E-05  8.523888702115E-05
  7.501180260126E-05  6.591697574545E-05  5.784070363810E-05  5.067938536832E-05
  4.433875694196E-05  3.873317314720E-05  3.378493400489E-05  2.942365366109E-05
  2.558566969152E-05  2.221349088627E-05  1.925528166936E-05  1.666438138281E-05
  1.439885673115E-05  1.242108573999E-05  1.069737163396E-05  9.197585086107E-06
  7.894833333892E-06  6.765154697601E-06  5.787237076315E-06  4.942159035323E-06
  4.213152137763E-06  3.585383212862E-06  3.045755293757E-06  2.582725999792E-06
  2.186142181482E-06  1.847089691043E-06  1.557757187396E-06  1.311312931755E-06
  1.101793578036E-06  9.240040111830E-07  7.734273357845E-07  6.461441667766E-07
  5.387604232876E-07  4.483428755157E-07  3.723617426314E-07  3.086396868360E-07
  2.553065946298E-07  2.107595808590E-07  1.736276940248E-07  1.427408425121E-07
  1.171025007003E-07  9.586579127044E-08  7.831257534905E-08  6.383521539378E-08
  5.192070691912E-08  4.213690427867E-08  3.412059279923E-08  2.756718463783E-08
  2.222183886608E-08  1.787182754332E-08  1.433998900248E-08  1.147912732328E-08
  9.167233100829E-09  7.303415227222E-09  5.804446587606E-09  4.601838428157E-09
  3.639368778545E-09  2.870999801515E-09  2.259127389847E-09  1.773113825799E-09
  1.388060945651E-09  1.083787093391E-09  8.439762793238E-10  6.554724531059E-10
  5.076957230276E-10  3.921607658888E-10  3.020806313292E-10  2.320417028438E-10
  1.777377822579E-10  1.357531579934E-10  1.033861386926E-10  7.850591738251E-11
  5.943680840306E-11  4.486489738753E-11  3.376298816557E-11  2.533044114505E-11
  1.894509451086E-11  1.412495906853E-11  1.049779424502E-11  7.777019215610E-12
  5.742700231051E-12  4.226592344116E-12  3.100408919063E-12  2.266652423878E-12
  1.651470904271E-12  1.199111182749E-12  8.676264076877E-13  6.255656241095E-13
  4.494295072099E-13  3.217217607876E-13  2.294619896816E-13  1.630548096621E-13
  1.154329642782E-13  8.141043022309E-14  5.719585588132E-14  4.002796253029E-14
  2.790337007522E-14  1.937419551300E-14  1.339812041760E-14  9.227760867178E-15
  6.329360858090E-15  4.323276414944E-15  2.940587148127E-15  1.991594975858E-15
  1.343048352831E-15  9.017442800447E-16  6.027725257467E-16  4.011240562122E-16
  2.657270635692E-16  1.752269949514E-16  1.150139214531E-16  7.513801381504E-17
  4.885447314602E-17  3.161253937209E-17  2.035633890831E-17  1.304366211633E-17
  8.316359501548E-18  5.275636853653E-18  3.329645705730E-18  2.090623253642E-18
  1.305812686623E-18  8.113077719295E-19  5.013740027622E-19  3.081630325951E-19
  1.788584386232E-19  1.088783762114E-19  6.590449366117E-20  0.000000000000E+00
  0.000000000000E+00  0.000000000000E+00  0.000000000000E+00  0.000000000000E+00
  0.000000000000E+00  0.000000000000E+00  0.000000000000E+00  0.000000000000E+00
  0.000000000000E+00
</data>
</radfunc>
</valence-charge>
<pseudocore-charge matching-radius="0.885909667818"
 number-of-continuous-derivatives="4">
<annotation model-charge-form="Teter function with specified parameters" />
<radfunc>
<data npts="290">
  9.473629775888E+01  9.473074010344E+01  9.471359099313E+01  9.468520384418E+01
  9.464573513252E+01  9.459383643598E+01  9.452768965504E+01  9.445194230358E+01
  9.436676793272E+01  9.426743497948E+01  9.415546173910E+01  9.403374487250E+01
  9.388662966239E+01  9.373296731056E+01  9.355167977002E+01  9.337060980492E+01
  9.316208196116E+01  9.296439925930E+01  9.274214236806E+01  9.249232346964E+01
  9.221160949752E+01  9.196231223302E+01  9.168878182126E+01  9.138874278629E+01
  9.105972280142E+01  9.069903924803E+01  9.030378566652E+01  8.998277703908E+01
  8.963914147308E+01  8.927137872257E+01  8.887790362293E+01  8.845704359775E+01
  8.800703650772E+01  8.752602893467E+01  8.701207500804E+01  8.646313589702E+01
  8.587708010896E+01  8.525168475372E+01  8.481176109277E+01  8.435262119246E+01
  8.387354260709E+01  8.337378750358E+01  8.285260364361E+01  8.230922555003E+01
  8.174287587484E+01  8.115276698722E+01  8.053810280099E+01  7.989808086173E+01
  7.923189471483E+01  7.853873657634E+01  7.781780032921E+01  7.706828486808E+01
  7.628939781609E+01  7.548035963708E+01  7.464040816661E+01  7.376880358460E+01
  7.286483385131E+01  7.192782062729E+01  7.095712569558E+01  6.995215790222E+01
  6.891238062762E+01  6.783731979729E+01  6.672657243537E+01  6.557981575836E+01
  6.439681679936E+01  6.317744254447E+01  6.192167055340E+01  6.128016134405E+01
  6.062960002515E+01  5.997001988284E+01  5.930146325652E+01  5.862398191359E+01
  5.793763742727E+01  5.724250155684E+01  5.653865662911E+01  5.582619592049E+01
  5.510522403832E+01  5.437585730048E+01  5.363822411198E+01  5.289246533725E+01
  5.213873466666E+01  5.137719897577E+01  5.060803867574E+01  4.983144805310E+01
  4.904763559717E+01  4.825682431310E+01  4.745925201859E+01  4.665517162209E+01
  4.584485138037E+01  4.502857513296E+01  4.420664251123E+01  4.337936911936E+01
  4.254708668490E+01  4.171014317586E+01  4.086890288185E+01  4.002374645633E+01
  3.917507091694E+01  3.832328960126E+01  3.746883207460E+01  3.661214398722E+01
  3.575368687758E+01  3.489393791894E+01  3.403338960597E+01  3.317254937877E+01
  3.231193918115E+01  3.145209495051E+01  3.059356603663E+01  2.973691454696E+01
  2.888271461582E+01  2.803155159572E+01  2.718402116866E+01  2.634072837599E+01
  2.550228656542E+01  2.466931625452E+01  2.384244390984E+01  2.302230064197E+01
  2.220952081674E+01  2.140474058355E+01  2.060859632247E+01  1.982172301212E+01
  1.904475252128E+01  1.827831182763E+01  1.752302116793E+01  1.677949212468E+01
  1.604832565505E+01  1.533011006878E+01  1.462541896263E+01  1.393480911966E+01
  1.325881838285E+01  1.259796351309E+01  1.195273804265E+01  1.132361013622E+01
  1.071102047214E+01  1.011538015760E+01  9.537068692096E+00  8.976431994198E+00
  8.433780507407E+00  7.909387401205E+00  7.403486883972E+00  6.916272644665E+00
  6.447896440281E+00  5.998466846172E+00  5.568048186006E+00  5.156659657867E+00
  4.764274672340E+00  4.390820417644E+00  4.036177665845E+00  3.700180832887E+00
  3.382618303653E+00  3.083233031513E+00  2.801723419748E+00  2.537744489993E+00
  2.290909340304E+00  2.060790892700E+00  1.846923927085E+00  1.648807395281E+00
  1.465907005636E+00  1.297658065188E+00  1.143468562910E+00  1.002722473966E+00
  8.747832614392E-01  7.589975484831E-01  6.546989306160E-01  5.612118947289E-01
  4.778558086061E-01  4.039489422874E-01  3.388124805832E-01  2.817744845259E-01
  2.321737585881E-01  1.893635801747E-01  1.527152482668E-01  1.216214091952E-01
  9.549911940076E-02  7.379260770302E-02  5.597570306060E-02  4.155389805030E-02
  3.006602327885E-02  2.108551361836E-02  1.422125344318E-02  9.117994840081E-03
  5.456349942461E-03  2.952365956855E-03  1.356698943246E-03  4.534098004872E-04
  5.841300352768E-05  1.761524292904E-05  2.047870312698E-04  5.192153731122E-04
  8.831895660021E-04  1.239374950676E-03  1.548130828620E-03  1.784828719261E-03
  1.937225584573E-03  2.002943601235E-03  1.987103557570E-03  1.900153097655E-03
  1.755923987112E-03  1.569944546744E-03  1.358024653040E-03  1.135121541589E-03
  9.144854047714E-04  7.070748010653E-04  5.212235452854E-04  3.625333686813E-04
  2.339605353652E-04  1.360600381772E-04  6.734816851182E-05  2.474327655667E-05
  4.045435778592E-06  4.184260158640E-07  8.841782550266E-06  2.450636012919E-05
  4.313358530690E-05  6.120590777200E-05  7.610346089594E-05  8.614914019003E-05
  9.057076044686E-05  8.939426266382E-05  8.328579497081E-05  7.336267815717E-05
  6.099370150281E-05  4.760792911346E-05  3.452841604191E-05  2.284324461968E-05
  1.332150056423E-05  6.376685842289E-06  2.075103633995E-06  1.824188588535E-07
  2.382943758075E-07  1.647015725571E-06  3.771491147430E-06  6.018933730910E-06
  7.908724105807E-06  9.116098433146E-06  9.488985093759E-06  9.039046074379E-06
  7.911290707065E-06  6.339109598904E-06  4.592933902443E-06  2.930827749201E-06
  1.558217052275E-06  6.018667590112E-07  1.005035149372E-07  0.000000000000E+00
  0.000000000000E+00  0.000000000000E+00  0.000000000000E+00  0.000000000000E+00
  0.000000000000E+00  0.000000000000E+00  0.000000000000E+00  0.000000000000E+00
  0.000000000000E+00  0.000000000000E+00  0.000000000000E+00  0.000000000000E+00
  0.000000000000E+00  0.000000000000E+00  0.000000000000E+00  0.000000000000E+00
  0.000000000000E+00  0.000000000000E+00  0.000000000000E+00  0.000000000000E+00
  0.000000000000E+00  0.000000000000E+00  0.000000000000E+00  0.000000000000E+00
  0.000000000000E+00  0.000000000000E+00  0.000000000000E+00  0.000000000000E+00
  0.000000000000E+00  0.000000000000E+00  0.000000000000E+00  0.000000000000E+00
  0.000000000000E+00  0.000000000000E+00  0.000000000000E+00  0.000000000000E+00
  0.000000000000E+00  0.000000000000E+00  0.000000000000E+00  0.000000000000E+00
  0.000000000000E+00  0.000000000000E+00  0.000000000000E+00  0.000000000000E+00
  0.000000000000E+00  0.000000000000E+00
</data>
</radfunc>
</pseudocore-charge>
<semilocal-potentials set="scalar_relativistic">
<slps n="5" l="s" rc="2.27326428537">
<radfunc>
<data npts="290">
  3.281860560470E+01  3.280057160888E+01  3.274500406986E+01  3.265328568856E+01
  3.252630559610E+01  3.236028890898E+01  3.215024949878E+01  3.191183961348E+01
  3.164641799593E+01  3.134037451878E+01  3.099982288853E+01  3.063486378521E+01
  3.020085163018E+01  2.975561684069E+01  2.924067079752E+01  2.873717401236E+01
  2.817029967441E+01  2.764530544624E+01  2.706895350223E+01  2.643805046263E+01
  2.574962138315E+01  2.515566673453E+01  2.452203979771E+01  2.384781552998E+01
  2.313234234850E+01  2.237528819118E+01  2.157668586177E+01  2.095071673185E+01
  2.030196455618E+01  1.963092781621E+01  1.893826089483E+01  1.822477894824E+01
  1.749146084995E+01  1.673944997622E+01  1.597005264047E+01  1.518473403284E+01
  1.438511158098E+01  1.357294571599E+01  1.302546241005E+01  1.247383262669E+01
  1.191866746409E+01  1.136059678198E+01  1.080026675458E+01  1.023833728756E+01
  9.675479322293E+00  9.112372053385E+00  8.549700086057E+00  7.988150561650E+00
  7.428410279660E+00  6.871162844911E+00  6.317085868014E+00  5.766848246324E+00
  5.221107551255E+00  4.680507545940E+00  4.145675855060E+00  3.617221806074E+00
  3.095734458229E+00  2.581780832668E+00  2.075904353669E+00  1.578623507726E+00
  1.090430723779E+00  6.117914745066E-01  1.431435953384E-01 -3.151031853745E-01
 -7.625675145862E-01 -1.198896493578E+00 -1.623765582807E+00 -1.831808945530E+00
 -2.036878350021E+00 -2.238941070142E+00 -2.437966081359E+00 -2.633924042646E+00
 -2.826787277144E+00 -3.016529751785E+00 -3.203127056084E+00 -3.386556380326E+00
 -3.566796493352E+00 -3.743827720204E+00 -3.917631919830E+00 -4.088192463131E+00
 -4.255494211567E+00 -4.419523496609E+00 -4.580268100288E+00 -4.737717237114E+00
 -4.891861537659E+00 -5.042693034076E+00 -5.190205147863E+00 -5.334392680156E+00
 -5.475251804874E+00 -5.612780065013E+00 -5.746976372393E+00 -5.877841011188E+00
 -6.005375645517E+00 -6.129583331393E+00 -6.250468533365E+00 -6.368037145992E+00
 -6.482296520546E+00 -6.593255496999E+00 -6.700924441550E+00 -6.805315289740E+00
 -6.906441595227E+00 -7.004318584156E+00 -7.098963215023E+00 -7.190394243784E+00
 -7.278632293871E+00 -7.363699930649E+00 -7.445621739699E+00 -7.524424408184E+00
 -7.600136808368E+00 -7.672790082270E+00 -7.742417726189E+00 -7.809055673778E+00
 -7.872742376135E+00 -7.933518877307E+00 -7.991428883455E+00 -8.046518823878E+00
 -8.098837902019E+00 -8.148438134558E+00 -8.195374376692E+00 -8.239704331733E+00
 -8.281488543226E+00 -8.320790367837E+00 -8.357675927382E+00 -8.392214038459E+00
 -8.424476118259E+00 -8.454536065190E+00 -8.482470113100E+00 -8.508356657883E+00
 -8.532276055306E+00 -8.554310388925E+00 -8.574543206903E+00 -8.593059226548E+00
 -8.609944005266E+00 -8.625283576657E+00 -8.639164050401E+00 -8.651671174593E+00
 -8.662889859322E+00 -8.672903660472E+00 -8.681794223125E+00 -8.689640684505E+00
 -8.696519037348E+00 -8.702501455737E+00 -8.707655587152E+00 -8.712043816580E+00
 -8.715722511250E+00 -8.718741257801E+00 -8.721142107513E+00 -8.722958849535E+00
 -8.724216336570E+00 -8.724929891969E+00 -8.725104831096E+00 -8.724736132482E+00
 -8.723808294860E+00 -8.722295413794E+00 -8.720161505228E+00 -8.717361092352E+00