<?xml version="1.0" encoding="UTF-8" ?>
<psml version="1.1" energy_unit="hartree" length_unit="bohr"
 uuid="b7a35890-5171-11e8-7097-b460ec7f75dd"
 xmlns="http://esl.cecam.org/PSML/ns/1.1">
<provenance creator="ONCVPSP-3.3.0+psml-3.3.0-73 (fully-relativistic)"
 date="2018-05-06">
<annotation action="semilocal-pseudopotential-generation"
 action-cont="projectors-generation" />
<input-file name="oncvpsp-input">
<![CDATA[# atsym z nc nv iexc psfile
Sn 50 6 5 4 both
# n l f
1 0 2.0
2 0 2.0
2 1 6.0
3 0 2.0
3 1 6.0
3 2 10.0
4 0 2.0
4 1 6.0
4 2 10.0
5 0 2.0
5 1 2.0
# lmax
2
# l rc ep ncon nbas qcut
0 1.3 0.0 4 8 9.4
1 1.3 0.0 4 8 9.6
2 1.5 0.0 4 8 10.0
# lloc lpopt rc5 dvloc0
4 5 1.3 0.0
# l nproj debl
0 2 1.0
1 2 1.0
2 2 2.0
# icmod fcfact rcfact
3 3.5 1.5
# epsh1 epsh2 depsh
-12.0 12.0 0.02
# rlmax drl
6.0 0.01
 0
]]>
</input-file>
</provenance>
<pseudo-atom-spec atomic-label="Sn" atomic-number="50" z-pseudo="22"
 flavor="Hamann&apos;s oncvpsp" relativity="dirac" spin-dft="no"
 core-corrections="yes">
<annotation pseudo-energy="-214.712311070" />
<exchange-correlation>
<annotation oncvpsp-xc-code="4" oncvpsp-xc-type="GGA -- Perdew-Burke-Ernzerhof" />
<libxc-info number-of-functionals="2">
<functional name="Perdew, Burke &amp; Ernzerhof (GGA)" type="exchange" id="101" />
<functional name="Perdew, Burke &amp; Ernzerhof (GGA)" type="correlation"
 id="130" />
</libxc-info>
</exchange-correlation>
<valence-configuration total-valence-charge="22">
<shell n="4" l="s" occupation="2" />
<shell n="4" l="p" occupation="6" />
<shell n="4" l="d" occupation="10" />
<shell n="5" l="s" occupation="2" />
<shell n="5" l="p" occupation="2" />
</valence-configuration>
</pseudo-atom-spec>
<grid npts="457">
<annotation type="sampled from oncvpsp log grid"
 recipe="r(i:1..N) = r1*exp(a*(i-1)) + r=0; resampled"
 recipe-cont="r1: scale; a: step" scale="0.100000000000E-04"
 step="0.119285708653E-01" delta="0.500000000000E-02" rmax="44.3197745331" />
<grid-data>
  0.000000000000E+00  5.000886690540E-03  1.010874525337E-02  1.516472982503E-02
  2.019142533776E-02  2.532775607628E-02  3.065384203313E-02  3.579575917496E-02
  4.081475699656E-02  4.598565112489E-02  5.119728757278E-02  5.632368393398E-02
  6.196338756004E-02  6.735948224037E-02  7.322549696456E-02  7.865845337823E-02
  8.449450730050E-02  8.968731867555E-02  9.519926665294E-02  1.010499645334E-01
  1.072602309997E-01  1.125021385341E-01  1.180002229791E-01  1.237670039391E-01
  1.298156128636E-01  1.361598229479E-01  1.428140804965E-01  1.480173298599E-01
  1.534101529953E-01  1.589994567820E-01  1.647923997425E-01  1.707964012112E-01
  1.770191508363E-01  1.834686184287E-01  1.901530641691E-01  1.970810491874E-01
  2.042614465274E-01  2.117034525111E-01  2.168148206685E-01  2.220495976987E-01
  2.274107631856E-01  2.329013686519E-01  2.385245392967E-01  2.442834757734E-01
  2.501814560125E-01  2.562218370865E-01  2.624080571211E-01  2.687436372522E-01
  2.752321836300E-01  2.818773894716E-01  2.886830371630E-01  2.956530004123E-01
  3.027912464542E-01  3.101018383086E-01  3.175889370927E-01  3.252568043899E-01
  3.331098046751E-01  3.411524077992E-01  3.493891915331E-01  3.578248441734E-01
  3.664641672112E-01  3.753120780643E-01  3.843736128771E-01  3.936539293864E-01
  4.031583098575E-01  4.128921640907E-01  4.228610325005E-01  4.279353648905E-01
  4.330705892692E-01  4.382674363404E-01  4.435266455765E-01  4.488489653234E-01
  4.542351529073E-01  4.596859747422E-01  4.652022064391E-01  4.707846329164E-01
  4.764340485114E-01  4.821512570935E-01  4.879370721786E-01  4.937923170448E-01
  4.997178248493E-01  5.057144387475E-01  5.117830120125E-01  5.179244081566E-01
  5.241395010545E-01  5.304291750672E-01  5.367943251680E-01  5.432358570700E-01
  5.497546873548E-01  5.563517436031E-01  5.630279645263E-01  5.697843001006E-01
  5.766217117018E-01  5.835411722423E-01  5.905436663092E-01  5.976301903049E-01
  6.048017525885E-01  6.120593736196E-01  6.194040861030E-01  6.268369351363E-01
  6.343589783579E-01  6.419712860982E-01  6.496749415314E-01  6.574710408298E-01
  6.653606933197E-01  6.733450216396E-01  6.814251618992E-01  6.896022638420E-01
  6.978774910081E-01  7.062520209002E-01  7.147270451510E-01  7.233037696928E-01
  7.319834149291E-01  7.407672159083E-01  7.496564224992E-01  7.586522995692E-01
  7.677561271640E-01  7.769692006900E-01  7.862928310983E-01  7.957283450714E-01
  8.052770852123E-01  8.149404102349E-01  8.247196951577E-01  8.346163314996E-01
  8.446317274776E-01  8.547673082073E-01  8.650245159058E-01  8.754048100966E-01
  8.859096678178E-01  8.965405838316E-01  9.072990708376E-01  9.181866596876E-01
  9.292048996039E-01  9.403553583991E-01  9.516396226999E-01  9.630592981723E-01
  9.746160097504E-01  9.863114018674E-01  9.981471386898E-01  1.010124904354E+00
  1.022246403206E+00  1.034513360045E+00  1.046927520365E+00  1.059490650610E+00
  1.072204538417E+00  1.085070992878E+00  1.098091844793E+00  1.111268946930E+00
  1.124604174293E+00  1.138099424385E+00  1.151756617477E+00  1.165577696887E+00
  1.179564629250E+00  1.193719404801E+00  1.208044037658E+00  1.222540566110E+00
  1.237211052904E+00  1.252057585538E+00  1.267082276565E+00  1.282287263884E+00
  1.297674711050E+00  1.313246807583E+00  1.329005769274E+00  1.344953838505E+00
  1.361093284567E+00  1.377426403982E+00  1.393955520830E+00  1.410682987080E+00
  1.427611182925E+00  1.444742517120E+00  1.462079427325E+00  1.479624380453E+00
  1.497379873019E+00  1.515348431495E+00  1.533532612673E+00  1.551935004025E+00
  1.570558224073E+00  1.589404922762E+00  1.608477781835E+00  1.627779515217E+00
  1.647312869400E+00  1.667080623833E+00  1.687085591319E+00  1.707330618414E+00
  1.727818585835E+00  1.748552408865E+00  1.769535037772E+00  1.790769458225E+00
  1.812258691724E+00  1.834005796024E+00  1.856013865577E+00  1.878286031964E+00
  1.900825464347E+00  1.923635369919E+00  1.946718994358E+00  1.970079622291E+00
  1.993720577758E+00  2.017645224691E+00  2.041856967388E+00  2.066359250996E+00
  2.091155562008E+00  2.116249428752E+00  2.141644421897E+00  2.167344154960E+00
  2.193352284820E+00  2.219672512237E+00  2.246308582384E+00  2.273264285373E+00
  2.300543456797E+00  2.328149978279E+00  2.356087778018E+00  2.384360831355E+00
  2.412973161331E+00  2.441928839267E+00  2.471231985338E+00  2.500886769162E+00
  2.530897410392E+00  2.561268179317E+00  2.592003397468E+00  2.623107438238E+00
  2.654584727497E+00  2.686439744227E+00  2.718677021158E+00  2.751301145412E+00
  2.784316759156E+00  2.817728560266E+00  2.851541302990E+00  2.885759798625E+00
  2.920388916209E+00  2.955433583203E+00  2.990898786202E+00  3.026789571636E+00
  3.063111046496E+00  3.099868379054E+00  3.137066799603E+00  3.174711601198E+00
  3.212808140412E+00  3.251361838097E+00  3.290378180154E+00  3.329862718316E+00
  3.369821070936E+00  3.410258923787E+00  3.451182030873E+00  3.492596215243E+00
  3.534507369826E+00  3.576921458264E+00  3.619844515763E+00  3.663282649952E+00
  3.707242041752E+00  3.751728946253E+00  3.796749693608E+00  3.842310689931E+00
  3.888418418210E+00  3.935079439229E+00  3.982300392499E+00  4.030087997209E+00
  4.078449053176E+00  4.127390441814E+00  4.176919127116E+00  4.227042156641E+00
  4.277766662521E+00  4.329099862471E+00  4.381049060821E+00  4.433621649551E+00
  4.486825109345E+00  4.540667010657E+00  4.595155014785E+00  4.650296874963E+00
  4.706100437462E+00  4.762573642712E+00  4.819724526424E+00  4.877561220741E+00
  4.936091955390E+00  4.995325058855E+00  5.055268959561E+00  5.115932187076E+00
  5.177323373321E+00  5.239451253801E+00  5.302324668846E+00  5.365952564873E+00
  5.430343995651E+00  5.495508123599E+00  5.561454221082E+00  5.628191671735E+00
  5.695729971796E+00  5.764078731457E+00  5.833247676235E+00  5.903246648350E+00
  5.974085608130E+00  6.045774635427E+00  6.118323931053E+00  6.191743818225E+00
  6.266044744044E+00  6.341237280972E+00  6.417332128344E+00  6.494340113884E+00
  6.572272195251E+00  6.651139461594E+00  6.730953135133E+00  6.811724572755E+00
  6.893465267628E+00  6.976186850839E+00  7.059901093049E+00  7.144619906166E+00
  7.230355345040E+00  7.317119609180E+00  7.404925044490E+00  7.493784145024E+00
  7.583709554765E+00  7.674714069422E+00  7.766810638255E+00  7.860012365914E+00
  7.954332514305E+00  8.049784504477E+00  8.146381918530E+00  8.244138501553E+00
  8.343068163571E+00  8.443184981534E+00  8.544503201313E+00  8.647037239728E+00
  8.750801686605E+00  8.855811306844E+00  8.962081042526E+00  9.069626015037E+00
  9.178461527217E+00  9.288603065544E+00  9.400066302330E+00  9.512867097958E+00
  9.627021503134E+00  9.742545761171E+00  9.859456310305E+00  9.977769786029E+00
  1.009750302346E+01  1.021867305974E+01  1.034129713646E+01  1.046539270210E+01
  1.059097741452E+01  1.071806914350E+01  1.084668597322E+01  1.097684620490E+01
  1.110856835936E+01  1.124187117967E+01  1.137677363382E+01  1.151329491743E+01
  1.165145445644E+01  1.179127190992E+01  1.193276717284E+01  1.207596037891E+01
  1.222087190346E+01  1.236752236630E+01  1.251593263469E+01  1.266612382631E+01
  1.281811731223E+01  1.297193471997E+01  1.312759793661E+01  1.328512911185E+01
  1.344455066119E+01  1.360588526913E+01  1.376915589236E+01  1.393438576307E+01
  1.410159839222E+01  1.427081757293E+01  1.444206738380E+01  1.461537219241E+01
  1.479075665872E+01  1.496824573862E+01  1.514786468749E+01  1.532963906374E+01
  1.551359473250E+01  1.569975786929E+01  1.588815496372E+01  1.607881282329E+01
  1.627175857717E+01  1.646701968009E+01  1.666462391625E+01  1.686459940325E+01
  1.706697459609E+01  1.727177829124E+01  1.747903963074E+01  1.768878810631E+01
  1.790105356358E+01  1.811586620634E+01  1.833325660082E+01  1.855325568003E+01
  1.877589474819E+01  1.900120548517E+01  1.922921995099E+01  1.945997059040E+01
  1.969349023749E+01  1.992981212034E+01  2.016896986578E+01  2.041099750417E+01
  2.065592947422E+01  2.090380062791E+01  2.115464623545E+01  2.140850199027E+01
  2.166540401416E+01  2.192538886233E+01  2.218849352867E+01  2.245475545102E+01
  2.272421251643E+01  2.299690306663E+01  2.327286590343E+01  2.355214029427E+01
  2.383476597780E+01  2.412078316953E+01  2.441023256757E+01  2.470315535838E+01
  2.499959322268E+01  2.529958834135E+01  2.560318340145E+01  2.591042160226E+01
  2.622134666149E+01  2.653600282143E+01  2.685443485529E+01  2.717668807355E+01
  2.750280833043E+01  2.783284203040E+01  2.816683613476E+01  2.850483816838E+01
  2.884689622640E+01  2.919305898112E+01  2.954337568889E+01  2.989789619716E+01
  3.025667095152E+01  3.061975100294E+01  3.098718801498E+01  3.135903427116E+01
  3.173534268241E+01  3.211616679460E+01  3.250156079613E+01  3.289157952569E+01
  3.328627847999E+01  3.368571382175E+01  3.408994238762E+01  3.449902169627E+01
  3.491300995662E+01  3.533196607610E+01  3.575594966902E+01  3.618502106504E+01
  3.661924131782E+01  3.705867221364E+01  3.750337628020E+01  3.795341679556E+01
  3.840885779711E+01  3.886976409068E+01  3.933620125976E+01  3.980823567488E+01
  4.028593450298E+01  4.076936571702E+01  4.125859810562E+01  4.175370128289E+01
  4.225474569828E+01  4.276180264666E+01  4.327494427842E+01  4.379424360976E+01
  4.431977453308E+01
</grid-data>
</grid>
<valence-charge total-charge="22" is-unscreening-charge="yes"
 rescaled-to-z-pseudo="no">
<radfunc>
<data npts="457">
  5.129031703795E+00  5.133476236031E+00  5.147192929901E+00  5.169906105634E+00
  5.201501912120E+00  5.243076568094E+00  5.296111396329E+00  5.356907291865E+00
  5.425350040923E+00  5.505277107114E+00  5.595512148381E+00  5.693762611416E+00
  5.812739642731E+00  5.937271413942E+00  6.084528248811E+00  6.231967247306E+00
  6.402201562068E+00  6.564007364052E+00  6.746412543281E+00  6.952038609460E+00
  7.183836095630E+00  7.390333733874E+00  7.617581720168E+00  7.867646672997E+00
  8.142791528324E+00  8.445490467146E+00  8.778443623811E+00  9.049772038038E+00
  9.341099947357E+00  9.653842556154E+00  9.989499124952E+00  1.034965387640E+01
  1.073597575950E+01  1.115021674292E+01  1.159420824199E+01  1.206985520823E+01
  1.257912732472E+01  1.312404665447E+01  1.350814555569E+01  1.390961615174E+01
  1.432907199184E+01  1.476712182773E+01  1.522436481307E+01  1.570138495806E+01
  1.619874476262E+01  1.671697794783E+01  1.725658120300E+01  1.781800486411E+01
  1.840164243959E+01  1.900781890145E+01  1.963677766398E+01  2.028866617983E+01
  2.096352009407E+01  2.166124591186E+01  2.238160215564E+01  2.312417901354E+01
  2.388837651314E+01  2.467338129476E+01  2.547814210649E+01  2.630134420064E+01
  2.714138287811E+01  2.799633650430E+01  2.886393940816E+01  2.974155517335E+01
  3.062615093834E+01  3.151427343848E+01  3.240202764508E+01  3.284442418002E+01
  3.328505898317E+01  3.372331377622E+01  3.415854023526E+01  3.459005992528E+01
  3.501716435877E+01  3.543911518957E+01  3.585514455378E+01  3.626445556934E+01
  3.666622300611E+01  3.705959413833E+01  3.744368979123E+01  3.781760559316E+01
  3.818041344449E+01  3.853116321390E+01  3.886888467200E+01  3.919258967138E+01
  3.950127458140E+01  3.979392298435E+01  4.006950863877E+01  4.032699871363E+01
  4.056535729547E+01  4.078354916839E+01  4.098054386464E+01  4.115531998086E+01
  4.130686975227E+01  4.143420387434E+01  4.153635655790E+01  4.161239080070E+01
  4.166140385448E+01  4.168253286326E+01  4.167496064437E+01  4.163792158021E+01
  4.157070758453E+01  4.147267410329E+01  4.134324610616E+01  4.118192402112E+01
  4.098828956117E+01  4.076201138868E+01  4.050285056037E+01  4.021066569316E+01
  3.988541778933E+01  3.952717465817E+01  3.913611487030E+01  3.871253118139E+01
  3.825683336245E+01  3.776955037608E+01  3.725133184049E+01  3.670294872713E+01
  3.612529324236E+01  3.551937784971E+01  3.488633339578E+01  3.422740631127E+01
  3.354395486714E+01  3.283744447594E+01  3.210944203895E+01  3.136160935116E+01
  3.059569558816E+01  2.981352891101E+01  2.901700723809E+01  2.820808824522E+01
  2.738877866768E+01  2.656112298961E+01  2.572719161735E+01  2.488906864358E+01
  2.404883931782E+01  2.320857734676E+01  2.237033215334E+01  2.153611622818E+01
  2.070789270850E+01  1.988756332028E+01  1.907695681696E+01  1.827781804405E+01
  1.749179775247E+01  1.672044327538E+01  1.596519017271E+01  1.522735493580E+01
  1.450812883113E+01  1.380857294737E+01  1.312961449417E+01  1.247204438516E+01
  1.183651612048E+01  1.122354596790E+01  1.063351442459E+01  1.006666892594E+01
  9.523127752404E+00  9.002885070765E+00  8.505817033330E+00  8.031688846037E+00
  7.580162705994E+00  7.150806499454E+00  6.743103143295E+00  6.356460446553E+00
  5.990221363539E+00  5.643674506530E+00  5.316066142999E+00  5.006617341802E+00
  4.714543287194E+00  4.439059829412E+00  4.179389795095E+00  3.934768364839E+00
  3.704447833691E+00  3.487701581591E+00  3.283827238793E+00  3.092149018273E+00
  2.912019204374E+00  2.742818803462E+00  2.583956741799E+00  2.434866031180E+00
  2.294998923256E+00  2.163827662728E+00  2.040844881242E+00  1.925563930920E+00
  1.817519068710E+00  1.716265505486E+00  1.621379333453E+00  1.532457344920E+00
  1.449116754979E+00  1.370994840030E+00  1.297748503450E+00  1.229053779060E+00
  1.164605282315E+00  1.104115618459E+00  1.047314756165E+00  9.939493744495E-01
  9.437821899616E-01  8.965912710520E-01  8.521693443614E-01  8.103230990395E-01
  7.708724931052E-01  7.336500659042E-01  6.985002600995E-01  6.652787561607E-01
  6.338518218801E-01  6.040956790548E-01  5.758958891150E-01  5.491467591586E-01
  5.237507695624E-01  4.996180240764E-01  4.766657230746E-01  4.548176604170E-01
  4.340037441890E-01  4.141595414067E-01  3.952258466230E-01  3.771482742266E-01
  3.598768741044E-01  3.433657702282E-01  3.275728216300E-01  3.124593051536E-01
  2.979896192972E-01  2.841310084103E-01  2.708533064616E-01  2.581286995628E-01
  2.459315064062E-01  2.342379757635E-01  2.230261001799E-01  2.122754450037E-01
  2.019669918900E-01  1.920829959340E-01  1.826068556016E-01  1.735229946438E-01
  1.648167552047E-01  1.564743013575E-01  1.484825323295E-01  1.408290047075E-01
  1.335018629297E-01  1.264897774396E-01  1.197818898573E-01  1.133677645911E-01
  1.072373463317E-01  1.013809229018E-01  9.578909296687E-02  9.045273814280E-02
  8.536299906426E-02  8.051125500894E-02  7.588910669915E-02  7.148836192974E-02
  6.730102369779E-02  6.331928053394E-02  5.953549875939E-02  5.594221641507E-02
  5.253213863086E-02  4.929813422314E-02  4.623323332760E-02  4.333062589233E-02
  4.058366087247E-02  3.798584598405E-02  3.553084788662E-02  3.321249268177E-02
  3.102476662258E-02  2.896181694364E-02  2.701795273134E-02  2.518764576329E-02
  2.346553125585E-02  2.184640846729E-02  2.032524111236E-02  1.889715755161E-02
  1.755745072595E-02  1.630157781391E-02  1.512515959500E-02  1.402397950854E-02
  1.299398240282E-02  1.203127297404E-02  1.113211389940E-02  1.029292367220E-02
  9.510274150788E-03  8.780887835972E-03  8.101634894208E-03  7.469529945998E-03
  6.881728640617E-03  6.335524039551E-03  5.828342831857E-03  5.357741405163E-03
  4.921401796123E-03  4.517127543966E-03  4.142839470292E-03  3.796571407583E-03
  3.476465897934E-03  3.180769882451E-03  2.907830400497E-03  2.656090316651E-03
  2.424084091813E-03  2.210433613426E-03  2.013844098277E-03  1.833100079872E-03
  1.667061490849E-03  1.514659849482E-03  1.374894557878E-03  1.246829318129E-03
  1.129588671382E-03  1.022354663539E-03  9.243636401808E-04  8.349031722049E-04
  7.533091126928E-04  6.789627846225E-04  6.112882982225E-04  5.497499960464E-04
  4.938500232171E-04  4.431260197484E-04  3.971489314009E-04  3.555209351706E-04
  3.178734752227E-04  2.838654048892E-04  2.531812302190E-04  2.255294505137E-04
  2.006409912802E-04  1.782677250907E-04  1.581810759362E-04  1.401707027978E-04
  1.240432583220E-04  1.096212186740E-04  9.674178083854E-05  8.525582384371E-05
  7.502693059059E-05  6.593046717149E-05  5.785271675616E-05  5.069006530800E-05
  4.434823656350E-05  3.874157386449E-05  3.379236657432E-05  2.943021893591E-05
  2.559145934133E-05  2.221858808152E-05  1.925976173082E-05  1.666831239643E-05
  1.440230012846E-05  1.242409684467E-05  1.070000017523E-05  9.199875679696E-06
  7.896825931509E-06  6.766885005859E-06  5.788736946231E-06  4.943456823523E-06
  4.214273040600E-06  3.586349574702E-06  3.046586890714E-06  2.583440300204E-06
  2.186754584447E-06  1.847613744314E-06  1.558204785919E-06  1.311694498133E-06
  1.102118226143E-06  9.242796941494E-07  7.736609795091E-07  6.463417900819E-07
  5.389272457940E-07  4.484834142487E-07  3.724798983282E-07  3.087388208585E-07
  2.553895973403E-07  2.108289322553E-07  1.736855173808E-07  1.427889517123E-07
  1.171424419080E-07  9.589887951772E-08  7.833992658705E-08  6.385777449803E-08
  5.193927209929E-08  4.215214830157E-08  3.413308139499E-08  2.757739242264E-08
  2.223016308489E-08  1.787859989480E-08  1.434548579453E-08  1.148357816919E-08
  9.170828347451E-09  7.306312283621E-09  5.806775303070E-09  4.603705650406E-09
  3.640862206996E-09  2.872191236019E-09  2.260075462477E-09  1.773866291793E-09
  1.388656599481E-09  1.084257366949E-09  8.443465713152E-10  6.557632318112E-10
  5.079234385240E-10  3.923386025412E-10  3.022191267644E-10  2.321492556480E-10
  1.778210672038E-10  1.358174646555E-10  1.034356467758E-10  7.854391993207E-11
  5.946589222131E-11  4.488708842256E-11  3.377986831634E-11  2.534324181432E-11
  1.895477130238E-11  1.413225124201E-11  1.050327188940E-11  7.781120558039E-12
  5.745761048938E-12  4.228869076062E-12  3.102096764733E-12  2.267899472070E-12
  1.652389123618E-12  1.199784942625E-12  8.681190615931E-13  6.259245783978E-13
  4.496901099112E-13  3.219102745751E-13  2.295978565040E-13  1.631523695356E-13
  1.155027550063E-13  8.146016656698E-14  5.723116446589E-14  4.005293132222E-14
  2.792095764054E-14  1.938653465142E-14  1.340674254752E-14  9.233761186194E-15
  6.333519421695E-15  4.326146537883E-15  2.942559681883E-15  1.992944850873E-15
  1.343968137053E-15  9.023682726779E-16  6.031939811555E-16  4.014074430871E-16
  2.659167519564E-16  1.753533845566E-16  1.150977453727E-16  7.519334712580E-17
  4.889082639358E-17  3.163630849173E-17  2.037180467563E-17  1.305367578058E-17
  8.322810877800E-18  5.279772314561E-18  3.332283139492E-18  2.092296649656E-18
  1.306868892168E-18  8.119709089009E-19  5.017881312543E-19  3.084202588558E-19
  1.789974211478E-19  1.089640570784E-19  6.595701610882E-20  0.000000000000E+00
  0.000000000000E+00  0.000000000000E+00  0.000000000000E+00  0.000000000000E+00
  0.000000000000E+00  0.000000000000E+00  0.000000000000E+00  0.000000000000E+00
  0.000000000000E+00
</data>
</radfunc>
</valence-charge>
<pseudocore-charge matching-radius="0.543235857070"
 number-of-continuous-derivatives="4">
<annotation model-charge-form="Teter function with specified parameters" />
<radfunc>
<data npts="290">
  1.430111863711E+02  1.429941688989E+02  1.429416645964E+02  1.428547736506E+02
  1.427340045558E+02  1.425752751484E+02  1.423730902917E+02  1.421417275866E+02
  1.418817844221E+02  1.415789161885E+02  1.412378759930E+02  1.408676024659E+02
  1.404206811636E+02  1.399545906131E+02  1.394056535953E+02  1.388583984931E+02
  1.382294235256E+02  1.376344132643E+02  1.369668932508E+02  1.362184356012E+02
  1.353797424303E+02  1.346369780320E+02  1.338242481600E+02  1.329354456510E+02
  1.319640315624E+02  1.309030267715E+02  1.297450091182E+02  1.288081185425E+02
  1.278087708818E+02  1.267433623524E+02  1.256081674805E+02  1.243993495658E+02
  1.231129742655E+02  1.217450267514E+02  1.202914329286E+02  1.187480852401E+02
  1.171108736144E+02  1.153757221387E+02  1.141625641334E+02  1.129029417730E+02
  1.115957316973E+02  1.102398509774E+02  1.088342659208E+02  1.073780016300E+02
  1.058701523396E+02  1.043098925519E+02  1.026964889849E+02  1.010293133396E+02
  9.930785588358E+01  9.753173983964E+01  9.570073655307E+01  9.381478139860E+01
  9.187399037103E+01  8.987867728435E+01  8.782937148330E+01  8.572683594707E+01
  8.357208563867E+01  8.136640592428E+01  7.911137085529E+01  7.680886107204E+01
  7.446108105168E+01  7.207057538541E+01  6.964024373054E+01  6.717335404394E+01
  6.467355366357E+01  6.214487776744E+01  5.959175470405E+01  5.830751734511E+01
  5.701900765793E+01  5.572688981536E+01  5.443185208937E+01  5.313460649931E+01
  5.183588837140E+01  5.053645580516E+01  4.923708904213E+01  4.793858973294E+01
  4.664178009837E+01  4.534750198064E+01  4.405661578135E+01  4.276999928265E+01
  4.148854634879E+01  4.021316550533E+01  3.894477839415E+01  3.768431810249E+01
  3.643272736512E+01  3.519095663936E+01  3.395996205325E+01  3.274070322807E+01
  3.153414097719E+01  3.034123488422E+01  2.916294076425E+01  2.800020801320E+01
  2.685397685126E+01  2.572517546750E+01  2.461471707425E+01  2.352349688059E+01
  2.245238899609E+01  2.140224327693E+01  2.037388212800E+01  1.936809727582E+01
  1.838564652868E+01  1.742725054156E+01  1.649358960454E+01  1.558530047512E+01
  1.470297327556E+01  1.384714847761E+01  1.301831399819E+01  1.221690242997E+01
  1.144328843193E+01  1.069778630519E+01  9.980647779844E+00  9.292060038463E+00
  8.632144001912E+00  8.000952902506E+00  7.398471168816E+00  6.824613645345E+00
  6.279225168824E+00  5.762080521094E+00  5.272884776380E+00  4.811274058183E+00
  4.376816718117E+00  3.969014945690E+00  3.587306814357E+00  3.231068765121E+00
  2.899618524646E+00  2.592218450120E+00  2.308079288249E+00  2.046364330612E+00
  1.806193942363E+00  1.586650435906E+00  1.386783255844E+00  1.205614436245E+00
  1.042144286198E+00  8.953572548370E-01  7.642279226110E-01  6.477270616801E-01
  5.448277050071E-01  4.545111611418E-01  3.757729099350E-01  3.076283135845E-01
  2.491180775954E-01  1.993133974998E-01  1.573207295986E-01  1.222861275862E-01
  9.339909172078E-02  6.989588319614E-02  5.106226350861E-02  3.623562682584E-02
  2.480650254506E-02  1.621941523269E-02  9.973099791876E-03  5.620080801402E-03
  2.765636270064E-03  1.066177293782E-03  2.270860045515E-04  6.446651144510E-08
  1.800565045846E-04  6.018125511348E-04  1.136174186785E-03  1.686159881071E-03
  2.182936293368E-03  2.581760210694E-03  2.857974673259E-03  3.003139037316E-03
  3.021366691841E-03  2.925936006741E-03  2.736230056113E-03  2.475049023207E-03
  2.166326324202E-03  1.833265822299E-03  1.496903532026E-03  1.175083460365E-03
  8.818242341927E-04  6.270414485189E-04  4.165807253610E-04  2.525087223334E-04
  1.336041062080E-04  5.598802944436E-05  1.383400468863E-05  1.002069330643E-07
  7.232939998615E-06  2.779793323173E-05  5.500580499951E-05  8.310885359328E-05
  1.076576505039E-04  1.256170178528E-04  1.353511837367E-04  1.364965974358E-04
  1.297475270457E-04  1.165837782844E-04  9.897146806491E-05  7.906676335124E-05
  5.894906368505E-05  4.040466660746E-05  2.477507432284E-05  1.287645960777E-05
  4.989148696438E-06  9.090272524688E-07  4.717964107102E-08  1.560331424086E-06
  4.493079610732E-06  7.913529172495E-06  1.102662753989E-05  1.325379419917E-05
  1.427279118633E-05  1.401747028607E-05  1.264233471395E-05  1.046110265183E-05
  7.871145317974E-06  5.276503862555E-06  3.021141960610E-06  1.341408599227E-06
  3.428475056695E-07  2.139449972693E-09  0.000000000000E+00  0.000000000000E+00
  0.000000000000E+00  0.000000000000E+00  0.000000000000E+00  0.000000000000E+00
  0.000000000000E+00  0.000000000000E+00  0.000000000000E+00  0.000000000000E+00
  0.000000000000E+00  0.000000000000E+00  0.000000000000E+00  0.000000000000E+00
  0.000000000000E+00  0.000000000000E+00  0.000000000000E+00  0.000000000000E+00
  0.000000000000E+00  0.000000000000E+00  0.000000000000E+00  0.000000000000E+00
  0.000000000000E+00  0.000000000000E+00  0.000000000000E+00  0.000000000000E+00
  0.000000000000E+00  0.000000000000E+00  0.000000000000E+00  0.000000000000E+00
  0.000000000000E+00  0.000000000000E+00  0.000000000000E+00  0.000000000000E+00
  0.000000000000E+00  0.000000000000E+00  0.000000000000E+00  0.000000000000E+00
  0.000000000000E+00  0.000000000000E+00  0.000000000000E+00  0.000000000000E+00
  0.000000000000E+00  0.000000000000E+00  0.000000000000E+00  0.000000000000E+00
  0.000000000000E+00  0.000000000000E+00  0.000000000000E+00  0.000000000000E+00
  0.000000000000E+00  0.000000000000E+00  0.000000000000E+00  0.000000000000E+00
  0.000000000000E+00  0.000000000000E+00  0.000000000000E+00  0.000000000000E+00
  0.000000000000E+00  0.000000000000E+00  0.000000000000E+00  0.000000000000E+00
  0.000000000000E+00  0.000000000000E+00  0.000000000000E+00  0.000000000000E+00
  0.000000000000E+00  0.000000000000E+00  0.000000000000E+00  0.000000000000E+00
  0.000000000000E+00  0.000000000000E+00  0.000000000000E+00  0.000000000000E+00
  0.000000000000E+00  0.000000000000E+00
</data>
</radfunc>
</pseudocore-charge>
<semilocal-potentials set="scalar_relativistic">
<slps n="4" l="s" rc="1.31324680758">
<radfunc>
<data npts="290">
 -1.824611749397E+01 -1.824849242600E+01 -1.825581777036E+01 -1.826793387283E+01
 -1.828475983075E+01 -1.830684959120E+01 -1.833494589555E+01 -1.836704062683E+01
 -1.840302862360E+01 -1.844486431916E+01 -1.849185062666E+01 -1.854271849434E+01
 -1.860391444178E+01 -1.866750110781E+01 -1.874208507587E+01 -1.881611368329E+01
 -1.890079585591E+01 -1.898051272037E+01 -1.906949262471E+01 -1.916869718389E+01
 -1.927915816046E+01 -1.937636796034E+01 -1.948207548390E+01 -1.959689464929E+01
 -1.972145794309E+01 -1.985641126814E+01 -2.000240735110E+01 -2.011954335610E+01
 -2.024352857433E+01 -2.037462767092E+01 -2.051309570780E+01 -2.065917452659E+01
 -2.081308869584E+01 -2.097504100595E+01 -2.114520749979E+01 -2.132373203380E+01
 -2.151072037153E+01 -2.170623382059E+01 -2.184131958139E+01 -2.198018880267E+01
 -2.212281780685E+01 -2.226916936871E+01 -2.241919167262E+01 -2.257281724910E+01
 -2.272996189543E+01 -2.289052358543E+01 -2.305438137421E+01 -2.322139430410E+01
 -2.339140031816E+01 -2.356421518861E+01 -2.373963146729E+01 -2.391741746602E+01
 -2.409731627485E+01 -2.427904482625E+01 -2.446229301390E+01 -2.464672287428E+01
 -2.483196783985E+01 -2.501763207240E+01 -2.520328988508E+01 -2.538848526190E+01
 -2.557273148312E+01 -2.575551086531E+01 -2.593627462462E+01 -2.611444287211E+01
 -2.628940475019E+01 -2.646051871969E+01 -2.662711300751E+01 -2.670849722333E+01
 -2.678848622601E+01 -2.686698784658E+01 -2.694390817620E+01 -2.701915160237E+01
 -2.709262084850E+01 -2.716421701709E+01 -2.723383963673E+01 -2.730138671297E+01
 -2.736675478328E+01 -2.742983897636E+01 -2.749053307585E+01 -2.754872958883E+01
 -2.760431981915E+01 -2.765719394589E+01 -2.770724110727E+01 -2.775434949009E+01
 -2.779840642501E+01 -2.783929848790E+01 -2.787691160756E+01 -2.791113117980E+01
 -2.794184218838E+01 -2.796892933273E+01 -2.799227716275E+01 -2.801177022067E+01
 -2.802729319022E+01 -2.803873105285E+01 -2.804596925125E+01 -2.804889385982E+01
 -2.804739176205E+01 -2.804135083447E+01 -2.803066013690E+01 -2.801521010855E+01
 -2.799489276950E+01 -2.796960192698E+01 -2.793923338591E+01 -2.790368516290E+01
 -2.786285770313E+01 -2.781665409932E+01 -2.776498031210E+01 -2.770774539107E+01
 -2.764486169594E+01 -2.757624511711E+01 -2.750181529546E+01 -2.742149584075E+01
 -2.733521454879E+01 -2.724290361735E+01 -2.714449986112E+01 -2.703994492644E+01
 -2.692918550660E+01 -2.681217355918E+01 -2.668886652691E+01 -2.655922756434E+01
 -2.642322577291E+01 -2.628083644757E+01 -2.613204133886E+01 -2.597682893512E+01
 -2.581519477004E+01 -2.564714176223E+01 -2.547268059417E+01 -2.529183013955E+01
 -2.510461794907E+01 -2.491108080694E+01 -2.471126537191E+01 -2.450522891883E+01
 -2.429304019939E+01 -2.407478044306E+01 -2.385054452238E+01 -2.362044230989E+01
 -2.338460025718E+01 -2.314316323028E+01 -2.289629663899E+01 -2.264418890119E+01
 -2.238705428653E+01 -2.212513618652E+01 -2.185871085986E+01 -2.158809170281E+01
 -2.131363409325E+01 -2.103574085387E+01 -2.075486837392E+01 -2.047153341879E+01
 -2.018632064214E+01 -1.989989079506E+01 -1.961298959990E+01 -1.932645722203E+01