Sn    ONCVPSP-3.3.0  r_core=   1.31325   1.31325   1.51535
50.0000     22.0000      180506    zatom,zion,pspd
8      11   2     4   600     0    pspcod,pspxc,lmax,lloc,mmax,r2well
5.99000000  3.50000000  0.00000000    rchrg fchrg qchrg
2     4     3     0    nproj
3     1           extension_switch
4     4     0    nprojso
0                        -6.7807456028114D-01  9.7026872175092D+00
1  0.0000000000000D+00 -1.0376244863330D-08  1.1622169893144D-10
2  1.0000000000000D-02  8.0369709197750D-02  8.3484352925163D-02
3  2.0000000000000D-02  1.5999441211805D-01  1.6676125113725D-01
4  3.0000000000000D-02  2.3813859827527D-01  2.4962377167696D-01
5  4.0000000000000D-02  3.1408559426411D-01  3.3186605524583D-01
6  5.0000000000000D-02  3.8714659875277D-01  4.1328383838949D-01
7  6.0000000000000D-02  4.5666926476406D-01  4.9367498601971D-01
8  7.0000000000000D-02  5.2204569077266D-01  5.7284002424872D-01
9  8.0000000000000D-02  5.8271969252317D-01  6.5058267339334D-01
10  9.0000000000000D-02  6.3819324009916D-01  7.2671038086458D-01
11  1.0000000000000D-01  6.8803195942743D-01  8.0103485349522D-01
12  1.1000000000000D-01  7.3186961382723D-01  8.7337258867404D-01
13  1.2000000000000D-01  7.6941149912257D-01  9.4354540345605D-01
14  1.3000000000000D-01  8.0043670491254D-01  1.0113809606062D+00
15  1.4000000000000D-01  8.2479921450309D-01  1.0767132903133D+00
16  1.5000000000000D-01  8.4242783639342D-01  1.1393833060875D+00
17  1.6000000000000D-01  8.5332498071870D-01  1.1992393131269D+00
18  1.7000000000000D-01  8.5756431431620D-01  1.2561375072234D+00
19  1.8000000000000D-01  8.5528734774142D-01  1.3099424620624D+00
20  1.9000000000000D-01  8.4669902626381D-01  1.3605276025751D+00
21  2.0000000000000D-01  8.3206241428248D-01  1.4077756618214D+00
22  2.1000000000000D-01  8.1169257840596D-01  1.4515791187229D+00
23  2.2000000000000D-01  7.8594978834931D-01  1.4918406138307D+00
24  2.3000000000000D-01  7.5523216656200D-01  1.5284733402103D+00
25  2.4000000000000D-01  7.1996792689182D-01  1.5614014064519D+00
26  2.5000000000000D-01  6.8060734943712D-01  1.5905601687768D+00
27  2.6000000000000D-01  6.3761464290805D-01  1.6158965292102D+00
28  2.7000000000000D-01  5.9145984722114D-01  1.6373691968287D+00
29  2.8000000000000D-01  5.4261092765273D-01  1.6549489091679D+00
30  2.9000000000000D-01  4.9152620768846D-01  1.6686186109935D+00
31  3.0000000000000D-01  4.3864728078802D-01  1.6783735877983D+00
32  3.1000000000000D-01  3.8439253175169D-01  1.6842215515866D+00
33  3.2000000000000D-01  3.2915138638210D-01  1.6861826767424D+00
34  3.3000000000000D-01  2.7327939388989D-01  1.6842895840548D+00
35  3.4000000000000D-01  2.1709423023801D-01  1.6785872712805D+00
36  3.5000000000000D-01  1.6087269264320D-01  1.6691329889665D+00
37  3.6000000000000D-01  1.0484873607134D-01  1.6559960606221D+00
38  3.7000000000000D-01  4.9212582120470D-02  1.6392576467282D+00
39  3.8000000000000D-01 -5.8890904455490D-03  1.6190104524812D+00
40  3.9000000000000D-01 -6.0351885693199D-02  1.5953583796040D+00
41  4.0000000000000D-01 -1.1411139457884D-01  1.5684161229971D+00
42  4.1000000000000D-01 -1.6713991747833D-01  1.5383087134492D+00
43  4.2000000000000D-01 -2.1944227959472D-01  1.5051710080793D+00
44  4.3000000000000D-01 -2.7105083239971D-01  1.4691471306238D+00
45  4.4000000000000D-01 -3.2201975139955D-01  1.4303898641187D+00
46  4.5000000000000D-01 -3.7241875570362D-01  1.3890599989469D+00
47  4.6000000000000D-01 -4.2232638780630D-01  1.3453256396199D+00
48  4.7000000000000D-01 -4.7182300240977D-01  1.2993614740393D+00
49  4.8000000000000D-01 -5.2098362078472D-01  1.2513480093268D+00
50  4.9000000000000D-01 -5.6987081191858D-01  1.2014707786248D+00
51  5.0000000000000D-01 -6.1852776340751D-01  1.1499195235412D+00
52  5.1000000000000D-01 -6.6697170363592D-01  1.0968873571453D+00
53  5.2000000000000D-01 -7.1518783224052D-01  1.0425699126099D+00
54  5.3000000000000D-01 -7.6312390822460D-01  9.8716448273192D-01
55  5.4000000000000D-01 -8.1068563445252D-01  9.3086915566321D-01
56  5.5000000000000D-01 -8.5773296377785D-01  8.7388195221834D-01
57  5.6000000000000D-01 -9.0407743598222D-01  8.1639997012454D-01
58  5.7000000000000D-01 -9.4948063617974D-01  7.5861854051771D-01
59  5.8000000000000D-01 -9.9365384487401D-01  7.0073040188207D-01
60  5.9000000000000D-01 -1.0362589275074D+00  6.4292489647448D-01
61  6.0000000000000D-01 -1.0769104878700D+00  5.8538719407277D-01
62  6.1000000000000D-01 -1.1151792851052D+00  5.2829754763935D-01
63  6.2000000000000D-01 -1.1505968892053D+00  4.7183058520524D-01
64  6.3000000000000D-01 -1.1826615247874D+00  4.1615464195289D-01
65  6.4000000000000D-01 -1.2108450284255D+00  3.6143113611729D-01
66  6.5000000000000D-01 -1.2346008211961D+00  3.0781399193692D-01
67  6.6000000000000D-01 -1.2533727757155D+00  2.5544911247098D-01
68  6.7000000000000D-01 -1.2666048364893D+00  2.0447390466647D-01
69  6.8000000000000D-01 -1.2737512341042D+00  1.5501685861069D-01
70  6.9000000000000D-01 -1.2742871179898D+00  1.0719718244462D-01
71  7.0000000000000D-01 -1.2677194197079D+00  6.1124493950510D-02
72  7.1000000000000D-01 -1.2535977490924D+00  1.6898569363886D-02
73  7.2000000000000D-01 -1.2315251193674D+00 -2.5390850495652D-02
74  7.3000000000000D-01 -1.2011682947953D+00 -6.5664197128987D-02
75  7.4000000000000D-01 -1.1622675555630D+00 -1.0385215508109D-01
76  7.5000000000000D-01 -1.1146456795377D+00 -1.3989568767963D-01
77  7.6000000000000D-01 -1.0582159492082D+00 -1.7374600937258D-01
78  7.7000000000000D-01 -9.9298900448860D-01 -2.0536450660925D-01
79  7.8000000000000D-01 -9.1907837788562D-01 -2.3472260953917D-01
80  7.9000000000000D-01 -8.3670456776899D-01 -2.6180161710066D-01
81  8.0000000000000D-01 -7.4619752760078D-01 -2.8659247833170D-01
82  8.1000000000000D-01 -6.4799747385013D-01 -3.0909553295995D-01
83  8.2000000000000D-01 -5.4265394243784D-01 -3.2932021451449D-01
84  8.3000000000000D-01 -4.3082305250636D-01 -3.4728471934825D-01
85  8.4000000000000D-01 -3.1326296661358D-01 -3.6301564506759D-01
86  8.5000000000000D-01 -1.9082756758209D-01 -3.7654760193362D-01
87  8.6000000000000D-01 -6.4458403666149D-02 -3.8792280083064D-01
88  8.7000000000000D-01  6.4825015128916D-02 -3.9719062139047D-01
89  8.8000000000000D-01  1.9593645638052D-01 -4.0440716382064D-01
90  8.9000000000000D-01  3.2773559804588D-01 -4.0963478791010D-01
91  9.0000000000000D-01  4.5904188543554D-01 -4.1294164258234D-01
92  9.1000000000000D-01  5.8864941838831D-01 -4.1440118923366D-01
93  9.2000000000000D-01  7.1534265286771D-01 -4.1409172193868D-01
94  9.3000000000000D-01  8.3791268270755D-01 -4.1209588742708D-01
95  9.4000000000000D-01  9.5517385243413D-01 -4.0850020754109D-01
96  9.5000000000000D-01  1.0659804412947D+00 -4.0339460667217D-01
97  9.6000000000000D-01  1.1692431521607D+00 -3.9687194645486D-01
98  9.7000000000000D-01  1.2639451367773D+00 -3.8902756976902D-01
99  9.8000000000000D-01  1.3491572913943D+00 -3.7995885586469D-01
100  9.9000000000000D-01  1.4240525638321D+00 -3.6976478819265D-01
101  1.0000000000000D+00  1.4879190246060D+00 -3.5854553629034D-01
102  1.0100000000000D+00  1.5401714706886D+00 -3.4640205284466D-01
103  1.0200000000000D+00  1.5803613505052D+00 -3.3343568683327D-01
104  1.0300000000000D+00  1.6081848237530D+00 -3.1974781342941D-01
105  1.0400000000000D+00  1.6234887947595D+00 -3.0543948116911D-01
106  1.0500000000000D+00  1.6262747918599D+00 -2.9061107667317D-01
107  1.0600000000000D+00  1.6167005964329D+00 -2.7536200705800D-01
108  1.0700000000000D+00  1.5950795610958D+00 -2.5979040000697D-01
109  1.0800000000000D+00  1.5618775952297D+00 -2.4399282132866D-01
110  1.0900000000000D+00  1.5177078293089D+00 -2.2806400971552D-01
111  1.1000000000000D+00  1.4633230127054D+00 -2.1209662829257D-01
112  1.1100000000000D+00  1.3996057343432D+00 -1.9618103246331D-01
113  1.1200000000000D+00  1.3275565936604D+00 -1.8040505348060D-01
114  1.1300000000000D+00  1.2482804829723D+00 -1.6485379711202D-01
115  1.1400000000000D+00  1.1629711746501D+00 -1.4960945672037D-01
116  1.1500000000000D+00  1.0728944398117D+00 -1.3475114004537D-01
117  1.1600000000000D+00  9.7936994894718D-01 -1.2035470895622D-01
118  1.1700000000000D+00  8.8375222670891D-01 -1.0649263143412D-01
119  1.1800000000000D+00  7.8741095374190D-01 -9.3233845040655D-02
120  1.1900000000000D+00  6.9171092276909D-01 -8.0643631140898D-02
121  1.2000000000000D+00  5.9799196181251D-01 -6.8783499170310D-02
122  1.2100000000000D+00  5.0754914405270D-01 -5.7711080243728D-02
123  1.2200000000000D+00  4.2161360347798D-01 -4.7480029446537D-02
124  1.2300000000000D+00  3.4133426409298D-01 -3.8139936177334D-02
125  1.2400000000000D+00  2.6776078397458D-01 -2.9736241936662D-02
126  1.2500000000000D+00  2.0182800066364D-01 -2.2310164998103D-02
127  1.2600000000000D+00  1.4434213286513D-01 -1.5898631445947D-02
128  1.2700000000000D+00  9.5983712932840D-02 -1.0535787938045D-02
129  1.2800000000000D+00  5.7238988348042D-02 -6.2466337294012D-03
130  1.2900000000000D+00  2.8285663168198D-02 -3.0365602815740D-03
131  1.3000000000000D+00  1.0113414467675D-02 -1.0035800159057D-03
132  1.3100000000000D+00  2.0925780383060D-03 -9.7995794416433D-05
133  1.3200000000000D+00 -2.0240858820825D-05  7.8071976102481D-05
134  1.3300000000000D+00  1.7616247317202D-05 -5.9016196563624D-06
135  1.3400000000000D+00  6.8636684398693D-05 -1.7598100830402D-05
136  1.3500000000000D+00 -9.1346137580423D-06  3.7784465003954D-06
137  1.3600000000000D+00 -2.4117736533155D-06  8.4931287672373D-07
138  1.3700000000000D+00 -2.7663639259354D-06 -4.4206575789780D-08
139  1.3800000000000D+00  0.0000000000000D+00  0.0000000000000D+00
140  1.3900000000000D+00  0.0000000000000D+00  0.0000000000000D+00
141  1.4000000000000D+00  0.0000000000000D+00  0.0000000000000D+00
142  1.4100000000000D+00  0.0000000000000D+00  0.0000000000000D+00
143  1.4200000000000D+00  0.0000000000000D+00  0.0000000000000D+00
144  1.4300000000000D+00  0.0000000000000D+00  0.0000000000000D+00
145  1.4400000000000D+00  0.0000000000000D+00  0.0000000000000D+00
146  1.4500000000000D+00  0.0000000000000D+00  0.0000000000000D+00
147  1.4600000000000D+00  0.0000000000000D+00  0.0000000000000D+00
148  1.4700000000000D+00  0.0000000000000D+00  0.0000000000000D+00
149  1.4800000000000D+00  0.0000000000000D+00  0.0000000000000D+00
150  1.4900000000000D+00  0.0000000000000D+00  0.0000000000000D+00
151  1.5000000000000D+00  0.0000000000000D+00  0.0000000000000D+00
152  1.5100000000000D+00  0.0000000000000D+00  0.0000000000000D+00
153  1.5200000000000D+00  0.0000000000000D+00  0.0000000000000D+00
154  1.5300000000000D+00  0.0000000000000D+00  0.0000000000000D+00
155  1.5400000000000D+00  0.0000000000000D+00  0.0000000000000D+00
156  1.5500000000000D+00  0.0000000000000D+00  0.0000000000000D+00
157  1.5600000000000D+00  0.0000000000000D+00  0.0000000000000D+00
158  1.5700000000000D+00  0.0000000000000D+00  0.0000000000000D+00
159  1.5800000000000D+00  0.0000000000000D+00  0.0000000000000D+00
160  1.5900000000000D+00  0.0000000000000D+00  0.0000000000000D+00
161  1.6000000000000D+00  0.0000000000000D+00  0.0000000000000D+00
162  1.6100000000000D+00  0.0000000000000D+00  0.0000000000000D+00
163  1.6200000000000D+00  0.0000000000000D+00  0.0000000000000D+00
164  1.6300000000000D+00  0.0000000000000D+00  0.0000000000000D+00
165  1.6400000000000D+00  0.0000000000000D+00  0.0000000000000D+00
166  1.6500000000000D+00  0.0000000000000D+00  0.0000000000000D+00
167  1.6600000000000D+00  0.0000000000000D+00  0.0000000000000D+00
168  1.6700000000000D+00  0.0000000000000D+00  0.0000000000000D+00
169  1.6800000000000D+00  0.0000000000000D+00  0.0000000000000D+00
170  1.6900000000000D+00  0.0000000000000D+00  0.0000000000000D+00
171  1.7000000000000D+00  0.0000000000000D+00  0.0000000000000D+00
172  1.7100000000000D+00  0.0000000000000D+00  0.0000000000000D+00
173  1.7200000000000D+00  0.0000000000000D+00  0.0000000000000D+00
174  1.7300000000000D+00  0.0000000000000D+00  0.0000000000000D+00
175  1.7400000000000D+00  0.0000000000000D+00  0.0000000000000D+00
176  1.7500000000000D+00  0.0000000000000D+00  0.0000000000000D+00
177  1.7600000000000D+00  0.0000000000000D+00  0.0000000000000D+00
178  1.7700000000000D+00  0.0000000000000D+00  0.0000000000000D+00
179  1.7800000000000D+00  0.0000000000000D+00  0.0000000000000D+00
180  1.7900000000000D+00  0.0000000000000D+00  0.0000000000000D+00
181  1.8000000000000D+00  0.0000000000000D+00  0.0000000000000D+00
182  1.8100000000000D+00  0.0000000000000D+00  0.0000000000000D+00
183  1.8200000000000D+00  0.0000000000000D+00  0.0000000000000D+00
184  1.8300000000000D+00  0.0000000000000D+00  0.0000000000000D+00
185  1.8400000000000D+00  0.0000000000000D+00  0.0000000000000D+00
186  1.8500000000000D+00  0.0000000000000D+00  0.0000000000000D+00
187  1.8600000000000D+00  0.0000000000000D+00  0.0000000000000D+00
188  1.8700000000000D+00  0.0000000000000D+00  0.0000000000000D+00
189  1.8800000000000D+00  0.0000000000000D+00  0.0000000000000D+00
190  1.8900000000000D+00  0.0000000000000D+00  0.0000000000000D+00
191  1.9000000000000D+00  0.0000000000000D+00  0.0000000000000D+00
192  1.9100000000000D+00  0.0000000000000D+00  0.0000000000000D+00
193  1.9200000000000D+00  0.0000000000000D+00  0.0000000000000D+00
194  1.9300000000000D+00  0.0000000000000D+00  0.0000000000000D+00
195  1.9400000000000D+00  0.0000000000000D+00  0.0000000000000D+00
196  1.9500000000000D+00  0.0000000000000D+00  0.0000000000000D+00
197  1.9600000000000D+00  0.0000000000000D+00  0.0000000000000D+00
198  1.9700000000000D+00  0.0000000000000D+00  0.0000000000000D+00
199  1.9800000000000D+00  0.0000000000000D+00  0.0000000000000D+00
200  1.9900000000000D+00  0.0000000000000D+00  0.0000000000000D+00
201  2.0000000000000D+00  0.0000000000000D+00  0.0000000000000D+00
202  2.0100000000000D+00  0.0000000000000D+00  0.0000000000000D+00
203  2.0200000000000D+00  0.0000000000000D+00  0.0000000000000D+00
204  2.0300000000000D+00  0.0000000000000D+00  0.0000000000000D+00
205  2.0400000000000D+00  0.0000000000000D+00  0.0000000000000D+00
206  2.0500000000000D+00  0.0000000000000D+00  0.0000000000000D+00
207  2.0600000000000D+00  0.0000000000000D+00  0.0000000000000D+00
208  2.0700000000000D+00  0.0000000000000D+00  0.0000000000000D+00
209  2.0800000000000D+00  0.0000000000000D+00  0.0000000000000D+00
210  2.0900000000000D+00  0.0000000000000D+00  0.0000000000000D+00
211  2.1000000000000D+00  0.0000000000000D+00  0.0000000000000D+00
212  2.1100000000000D+00  0.0000000000000D+00  0.0000000000000D+00
213  2.1200000000000D+00  0.0000000000000D+00  0.0000000000000D+00
214  2.1300000000000D+00  0.0000000000000D+00  0.0000000000000D+00
215  2.1400000000000D+00  0.0000000000000D+00  0.0000000000000D+00
216  2.1500000000000D+00  0.0000000000000D+00  0.0000000000000D+00
217  2.1600000000000D+00  0.0000000000000D+00  0.0000000000000D+00
218  2.1700000000000D+00  0.0000000000000D+00  0.0000000000000D+00
219  2.1800000000000D+00  0.0000000000000D+00  0.0000000000000D+00
220  2.1900000000000D+00  0.0000000000000D+00  0.0000000000000D+00
221  2.2000000000000D+00  0.0000000000000D+00  0.0000000000000D+00
222  2.2100000000000D+00  0.0000000000000D+00  0.0000000000000D+00
223  2.2200000000000D+00  0.0000000000000D+00  0.0000000000000D+00
224  2.2300000000000D+00  0.0000000000000D+00  0.0000000000000D+00
225  2.2400000000000D+00  0.0000000000000D+00  0.0000000000000D+00
226  2.2500000000000D+00  0.0000000000000D+00  0.0000000000000D+00
227  2.2600000000000D+00  0.0000000000000D+00  0.0000000000000D+00
228  2.2700000000000D+00  0.0000000000000D+00  0.0000000000000D+00
229  2.2800000000000D+00  0.0000000000000D+00  0.0000000000000D+00
230  2.2900000000000D+00  0.0000000000000D+00  0.0000000000000D+00
231  2.3000000000000D+00  0.0000000000000D+00  0.0000000000000D+00
232  2.3100000000000D+00  0.0000000000000D+00  0.0000000000000D+00
233  2.3200000000000D+00  0.0000000000000D+00  0.0000000000000D+00
234  2.3300000000000D+00  0.0000000000000D+00  0.0000000000000D+00
235  2.3400000000000D+00  0.0000000000000D+00  0.0000000000000D+00
236  2.3500000000000D+00  0.0000000000000D+00  0.0000000000000D+00
237  2.3600000000000D+00  0.0000000000000D+00  0.0000000000000D+00
238  2.3700000000000D+00  0.0000000000000D+00  0.0000000000000D+00
239  2.3800000000000D+00  0.0000000000000D+00  0.0000000000000D+00
240  2.3900000000000D+00  0.0000000000000D+00  0.0000000000000D+00
241  2.4000000000000D+00  0.0000000000000D+00  0.0000000000000D+00
242  2.4100000000000D+00  0.0000000000000D+00  0.0000000000000D+00
243  2.4200000000000D+00  0.0000000000000D+00  0.0000000000000D+00
244  2.4300000000000D+00  0.0000000000000D+00  0.0000000000000D+00
245  2.4400000000000D+00  0.0000000000000D+00  0.0000000000000D+00
246  2.4500000000000D+00  0.0000000000000D+00  0.0000000000000D+00
247  2.4600000000000D+00  0.0000000000000D+00  0.0000000000000D+00
248  2.4700000000000D+00  0.0000000000000D+00  0.0000000000000D+00
249  2.4800000000000D+00  0.0000000000000D+00  0.0000000000000D+00
250  2.4900000000000D+00  0.0000000000000D+00  0.0000000000000D+00
251  2.5000000000000D+00  0.0000000000000D+00  0.0000000000000D+00
252  2.5100000000000D+00  0.0000000000000D+00  0.0000000000000D+00
253  2.5200000000000D+00  0.0000000000000D+00  0.0000000000000D+00
254  2.5300000000000D+00  0.0000000000000D+00  0.0000000000000D+00
255  2.5400000000000D+00  0.0000000000000D+00  0.0000000000000D+00
256  2.5500000000000D+00  0.0000000000000D+00  0.0000000000000D+00
257  2.5600000000000D+00  0.0000000000000D+00  0.0000000000000D+00
258  2.5700000000000D+00  0.0000000000000D+00  0.0000000000000D+00
259  2.5800000000000D+00  0.0000000000000D+00  0.0000000000000D+00
260  2.5900000000000D+00  0.0000000000000D+00  0.0000000000000D+00
261  2.6000000000000D+00  0.0000000000000D+00  0.0000000000000D+00
262  2.6100000000000D+00  0.0000000000000D+00  0.0000000000000D+00
263  2.6200000000000D+00  0.0000000000000D+00  0.0000000000000D+00
264  2.6300000000000D+00  0.0000000000000D+00  0.0000000000000D+00
265  2.6400000000000D+00  0.0000000000000D+00  0.0000000000000D+00
266  2.6500000000000D+00  0.0000000000000D+00  0.0000000000000D+00
267  2.6600000000000D+00  0.0000000000000D+00  0.0000000000000D+00
268  2.6700000000000D+00  0.0000000000000D+00  0.0000000000000D+00
269  2.6800000000000D+00  0.0000000000000D+00  0.0000000000000D+00
270  2.6900000000000D+00  0.0000000000000D+00  0.0000000000000D+00
271  2.7000000000000D+00  0.0000000000000D+00  0.0000000000000D+00
272  2.7100000000000D+00  0.0000000000000D+00  0.0000000000000D+00
273  2.7200000000000D+00  0.0000000000000D+00  0.0000000000000D+00
274  2.7300000000000D+00  0.0000000000000D+00  0.0000000000000D+00
275  2.7400000000000D+00  0.0000000000000D+00  0.0000000000000D+00
276  2.7500000000000D+00  0.0000000000000D+00  0.0000000000000D+00
277  2.7600000000000D+00  0.0000000000000D+00  0.0000000000000D+00
278  2.7700000000000D+00  0.0000000000000D+00  0.0000000000000D+00
279  2.7800000000000D+00  0.0000000000000D+00  0.0000000000000D+00
280  2.7900000000000D+00  0.0000000000000D+00  0.0000000000000D+00
281  2.8000000000000D+00  0.0000000000000D+00  0.0000000000000D+00
282  2.8100000000000D+00  0.0000000000000D+00  0.0000000000000D+00
283  2.8200000000000D+00  0.0000000000000D+00  0.0000000000000D+00
284  2.8300000000000D+00  0.0000000000000D+00  0.0000000000000D+00
285  2.8400000000000D+00  0.0000000000000D+00  0.0000000000000D+00
286  2.8500000000000D+00  0.0000000000000D+00  0.0000000000000D+00
287  2.8600000000000D+00  0.0000000000000D+00  0.0000000000000D+00
288  2.8700000000000D+00  0.0000000000000D+00  0.0000000000000D+00
289  2.8800000000000D+00  0.0000000000000D+00  0.0000000000000D+00
290  2.8900000000000D+00  0.0000000000000D+00  0.0000000000000D+00
291  2.9000000000000D+00  0.0000000000000D+00  0.0000000000000D+00
292  2.9100000000000D+00  0.0000000000000D+00  0.0000000000000D+00
293  2.9200000000000D+00  0.0000000000000D+00  0.0000000000000D+00
294  2.9300000000000D+00  0.0000000000000D+00  0.0000000000000D+00
295  2.9400000000000D+00  0.0000000000000D+00  0.0000000000000D+00
296  2.9500000000000D+00  0.0000000000000D+00  0.0000000000000D+00
297  2.9600000000000D+00  0.0000000000000D+00  0.0000000000000D+00
298  2.9700000000000D+00  0.0000000000000D+00  0.0000000000000D+00
299  2.9800000000000D+00  0.0000000000000D+00  0.0000000000000D+00
300  2.9900000000000D+00  0.0000000000000D+00  0.0000000000000D+00
301  3.0000000000000D+00  0.0000000000000D+00  0.0000000000000D+00
302  3.0100000000000D+00  0.0000000000000D+00  0.0000000000000D+00
303  3.0200000000000D+00  0.0000000000000D+00  0.0000000000000D+00
304  3.0300000000000D+00  0.0000000000000D+00  0.0000000000000D+00
305  3.0400000000000D+00  0.0000000000000D+00  0.0000000000000D+00
306  3.0500000000000D+00  0.0000000000000D+00  0.0000000000000D+00
307  3.0600000000000D+00  0.0000000000000D+00  0.0000000000000D+00
308  3.0700000000000D+00  0.0000000000000D+00  0.0000000000000D+00
309  3.0800000000000D+00  0.0000000000000D+00  0.0000000000000D+00
310  3.0900000000000D+00  0.0000000000000D+00  0.0000000000000D+00
311  3.1000000000000D+00  0.0000000000000D+00  0.0000000000000D+00
312  3.1100000000000D+00  0.0000000000000D+00  0.0000000000000D+00
313  3.1200000000000D+00  0.0000000000000D+00  0.0000000000000D+00
314  3.1300000000000D+00  0.0000000000000D+00  0.0000000000000D+00
315  3.1400000000000D+00  0.0000000000000D+00  0.0000000000000D+00
316  3.1500000000000D+00  0.0000000000000D+00  0.0000000000000D+00
317  3.1600000000000D+00  0.0000000000000D+00  0.0000000000000D+00
318  3.1700000000000D+00  0.0000000000000D+00  0.0000000000000D+00
319  3.1800000000000D+00  0.0000000000000D+00  0.0000000000000D+00
320  3.1900000000000D+00  0.0000000000000D+00  0.0000000000000D+00
321  3.2000000000000D+00  0.0000000000000D+00  0.0000000000000D+00
322  3.2100000000000D+00  0.0000000000000D+00  0.0000000000000D+00
323  3.2200000000000D+00  0.0000000000000D+00  0.0000000000000D+00
324  3.2300000000000D+00  0.0000000000000D+00  0.0000000000000D+00
325  3.2400000000000D+00  0.0000000000000D+00  0.0000000000000D+00
326  3.2500000000000D+00  0.0000000000000D+00  0.0000000000000D+00
327  3.2600000000000D+00  0.0000000000000D+00  0.0000000000000D+00
328  3.2700000000000D+00  0.0000000000000D+00  0.0000000000000D+00
329  3.2800000000000D+00  0.0000000000000D+00  0.0000000000000D+00
330  3.2900000000000D+00  0.0000000000000D+00  0.0000000000000D+00
331  3.3000000000000D+00  0.0000000000000D+00  0.0000000000000D+00
332  3.3100000000000D+00  0.0000000000000D+00  0.0000000000000D+00
333  3.3200000000000D+00  0.0000000000000D+00  0.0000000000000D+00
334  3.3300000000000D+00  0.0000000000000D+00  0.0000000000000D+00
335  3.3400000000000D+00  0.0000000000000D+00  0.0000000000000D+00
336  3.3500000000000D+00  0.0000000000000D+00  0.0000000000000D+00
337  3.3600000000000D+00  0.0000000000000D+00  0.0000000000000D+00
338  3.3700000000000D+00  0.0000000000000D+00  0.0000000000000D+00
339  3.3800000000000D+00  0.0000000000000D+00  0.0000000000000D+00
340  3.3900000000000D+00  0.0000000000000D+00  0.0000000000000D+00
341  3.4000000000000D+00  0.0000000000000D+00  0.0000000000000D+00
342  3.4100000000000D+00  0.0000000000000D+00  0.0000000000000D+00
343  3.4200000000000D+00  0.0000000000000D+00  0.0000000000000D+00
344  3.4300000000000D+00  0.0000000000000D+00  0.0000000000000D+00
345  3.4400000000000D+00  0.0000000000000D+00  0.0000000000000D+00
346  3.4500000000000D+00  0.0000000000000D+00  0.0000000000000D+00
347  3.4600000000000D+00  0.0000000000000D+00  0.0000000000000D+00
348  3.4700000000000D+00  0.0000000000000D+00  0.0000000000000D+00
349  3.4800000000000D+00  0.0000000000000D+00  0.0000000000000D+00
350  3.4900000000000D+00  0.0000000000000D+00  0.0000000000000D+00
351  3.5000000000000D+00  0.0000000000000D+00  0.0000000000000D+00
352  3.5100000000000D+00  0.0000000000000D+00  0.0000000000000D+00
353  3.5200000000000D+00  0.0000000000000D+00  0.0000000000000D+00
354  3.5300000000000D+00  0.0000000000000D+00  0.0000000000000D+00
355  3.5400000000000D+00  0.0000000000000D+00  0.0000000000000D+00
356  3.5500000000000D+00  0.0000000000000D+00  0.0000000000000D+00
357  3.5600000000000D+00  0.0000000000000D+00  0.0000000000000D+00
358  3.5700000000000D+00  0.0000000000000D+00  0.0000000000000D+00
359  3.5800000000000D+00  0.0000000000000D+00  0.0000000000000D+00
360  3.5900000000000D+00  0.0000000000000D+00  0.0000000000000D+00
361  3.6000000000000D+00  0.0000000000000D+00  0.0000000000000D+00
362  3.6100000000000D+00  0.0000000000000D+00  0.0000000000000D+00
363  3.6200000000000D+00  0.0000000000000D+00  0.0000000000000D+00
364  3.6300000000000D+00  0.0000000000000D+00  0.0000000000000D+00
365  3.6400000000000D+00  0.0000000000000D+00  0.0000000000000D+00
366  3.6500000000000D+00  0.0000000000000D+00  0.0000000000000D+00
367  3.6600000000000D+00  0.0000000000000D+00  0.0000000000000D+00
368  3.6700000000000D+00  0.0000000000000D+00  0.0000000000000D+00
369  3.6800000000000D+00  0.0000000000000D+00  0.0000000000000D+00
370  3.6900000000000D+00  0.0000000000000D+00  0.0000000000000D+00
371  3.7000000000000D+00  0.0000000000000D+00  0.0000000000000D+00
372  3.7100000000000D+00  0.0000000000000D+00  0.0000000000000D+00
373  3.7200000000000D+00  0.0000000000000D+00  0.0000000000000D+00
374  3.7300000000000D+00  0.0000000000000D+00  0.0000000000000D+00
375  3.7400000000000D+00  0.0000000000000D+00  0.0000000000000D+00
376  3.7500000000000D+00  0.0000000000000D+00  0.0000000000000D+00
377  3.7600000000000D+00  0.0000000000000D+00  0.0000000000000D+00
378  3.7700000000000D+00  0.0000000000000D+00  0.0000000000000D+00
379  3.7800000000000D+00  0.0000000000000D+00  0.0000000000000D+00
380  3.7900000000000D+00  0.0000000000000D+00  0.0000000000000D+00
381  3.8000000000000D+00  0.0000000000000D+00  0.0000000000000D+00
382  3.8100000000000D+00  0.0000000000000D+00  0.0000000000000D+00
383  3.8200000000000D+00  0.0000000000000D+00  0.0000000000000D+00
384  3.8300000000000D+00  0.0000000000000D+00  0.0000000000000D+00
385  3.8400000000000D+00  0.0000000000000D+00  0.0000000000000D+00
386  3.8500000000000D+00  0.0000000000000D+00  0.0000000000000D+00
387  3.8600000000000D+00  0.0000000000000D+00  0.0000000000000D+00
388  3.8700000000000D+00  0.0000000000000D+00  0.0000000000000D+00
389  3.8800000000000D+00  0.0000000000000D+00  0.0000000000000D+00
390  3.8900000000000D+00  0.0000000000000D+00  0.0000000000000D+00
391  3.9000000000000D+00  0.0000000000000D+00  0.0000000000000D+00
392  3.9100000000000D+00  0.0000000000000D+00  0.0000000000000D+00
393  3.9200000000000D+00  0.0000000000000D+00  0.0000000000000D+00
394  3.9300000000000D+00  0.0000000000000D+00  0.0000000000000D+00
395  3.9400000000000D+00  0.0000000000000D+00  0.0000000000000D+00
396  3.9500000000000D+00  0.0000000000000D+00  0.0000000000000D+00
397  3.9600000000000D+00  0.0000000000000D+00  0.0000000000000D+00
398  3.9700000000000D+00  0.0000000000000D+00  0.0000000000000D+00
399  3.9800000000000D+00  0.0000000000000D+00  0.0000000000000D+00
400  3.9900000000000D+00  0.0000000000000D+00  0.0000000000000D+00
401  4.0000000000000D+00  0.0000000000000D+00  0.0000000000000D+00
402  4.0100000000000D+00  0.0000000000000D+00  0.0000000000000D+00
403  4.0200000000000D+00  0.0000000000000D+00  0.0000000000000D+00
404  4.0300000000000D+00  0.0000000000000D+00  0.0000000000000D+00
405  4.0400000000000D+00  0.0000000000000D+00  0.0000000000000D+00
406  4.0500000000000D+00  0.0000000000000D+00  0.0000000000000D+00
407  4.0600000000000D+00  0.0000000000000D+00  0.0000000000000D+00
408  4.0700000000000D+00  0.0000000000000D+00  0.0000000000000D+00
409  4.0800000000000D+00  0.0000000000000D+00  0.0000000000000D+00
410  4.0900000000000D+00  0.0000000000000D+00  0.0000000000000D+00
411  4.1000000000000D+00  0.0000000000000D+00  0.0000000000000D+00
412  4.1100000000000D+00  0.0000000000000D+00  0.0000000000000D+00
413  4.1200000000000D+00  0.0000000000000D+00  0.0000000000000D+00
414  4.1300000000000D+00  0.0000000000000D+00  0.0000000000000D+00
415  4.1400000000000D+00  0.0000000000000D+00  0.0000000000000D+00
416  4.1500000000000D+00  0.0000000000000D+00  0.0000000000000D+00
417  4.1600000000000D+00  0.0000000000000D+00  0.0000000000000D+00
418  4.1700000000000D+00  0.0000000000000D+00  0.0000000000000D+00
419  4.1800000000000D+00  0.0000000000000D+00  0.0000000000000D+00
420  4.1900000000000D+00  0.0000000000000D+00  0.0000000000000D+00
421  4.2000000000000D+00  0.0000000000000D+00  0.0000000000000D+00
422  4.2100000000000D+00  0.0000000000000D+00  0.0000000000000D+00
423  4.2200000000000D+00  0.0000000000000D+00  0.0000000000000D+00
424  4.2300000000000D+00  0.0000000000000D+00  0.0000000000000D+00
425  4.2400000000000D+00  0.0000000000000D+00  0.0000000000000D+00
426  4.2500000000000D+00  0.0000000000000D+00  0.0000000000000D+00
427  4.2600000000000D+00  0.0000000000000D+00  0.0000000000000D+00
428  4.2700000000000D+00  0.0000000000000D+00  0.0000000000000D+00
429  4.2800000000000D+00  0.0000000000000D+00  0.0000000000000D+00
430  4.2900000000000D+00  0.0000000000000D+00  0.0000000000000D+00
431  4.3000000000000D+00  0.0000000000000D+00  0.0000000000000D+00
432  4.3100000000000D+00  0.0000000000000D+00  0.0000000000000D+00
433  4.3200000000000D+00  0.0000000000000D+00  0.0000000000000D+00
434  4.3300000000000D+00  0.0000000000000D+00  0.0000000000000D+00
435  4.3400000000000D+00  0.0000000000000D+00  0.0000000000000D+00
436  4.3500000000000D+00  0.0000000000000D+00  0.0000000000000D+00
437  4.3600000000000D+00  0.0000000000000D+00  0.0000000000000D+00
438  4.3700000000000D+00  0.0000000000000D+00  0.0000000000000D+00
439  4.3800000000000D+00  0.0000000000000D+00  0.0000000000000D+00
440  4.3900000000000D+00  0.0000000000000D+00  0.0000000000000D+00
441  4.4000000000000D+00  0.0000000000000D+00  0.0000000000000D+00
442  4.4100000000000D+00  0.0000000000000D+00  0.0000000000000D+00
443  4.4200000000000D+00  0.0000000000000D+00  0.0000000000000D+00