<?xml version="1.0" encoding="UTF-8" ?>
<psml version="1.1" energy_unit="hartree" length_unit="bohr"
 uuid="7fbf1e50-43c5-11e8-4335-9f37fff3b7ed"
 xmlns="http://esl.cecam.org/PSML/ns/1.1">
<provenance creator="ONCVPSP-3.3.0+psml-3.3.0-73 (fully-relativistic)"
 date="2018-04-19">
<annotation action="semilocal-pseudopotential-generation"
 action-cont="projectors-generation" />
<input-file name="oncvpsp-input">
<![CDATA[# atsym z nc nv iexc psfile
Ti 22 3 4 4 both
# n l f
1 0 2.0
2 0 2.0
2 1 6.0
3 0 2.0
3 1 6.0
3 2 2.0
4 0 2.0
# lmax
2
# l rc ep ncon nbas qcut
0 1.35 0.0 4 8 8.6
1 1.3 0.0 4 8 9.0
2 1.65 0.0 4 8 9.0
# lloc lpopt rc5 dvloc0
4 5 1.3 0.0
# l nproj debl
0 2 1.0
1 2 2.0
2 2 1.5
# icmod fcfact
3 2.5 1.40
# epsh1 epsh2 depsh
-12.0 12.0 0.02
# rlmax drl
6.0 0.01
 0
]]>
</input-file>
</provenance>
<pseudo-atom-spec atomic-label="Ti" atomic-number="22" z-pseudo="12"
 flavor="Hamann&apos;s oncvpsp" relativity="dirac" spin-dft="no"
 core-corrections="yes">
<annotation pseudo-energy="-58.0607524712" />
<exchange-correlation>
<annotation oncvpsp-xc-code="4" oncvpsp-xc-type="GGA -- Perdew-Burke-Ernzerhof" />
<libxc-info number-of-functionals="2">
<functional name="Perdew, Burke &amp; Ernzerhof (GGA)" type="exchange" id="101" />
<functional name="Perdew, Burke &amp; Ernzerhof (GGA)" type="correlation"
 id="130" />
</libxc-info>
</exchange-correlation>
<valence-configuration total-valence-charge="12">
<shell n="3" l="s" occupation="2" />
<shell n="3" l="p" occupation="6" />
<shell n="3" l="d" occupation="2" />
<shell n="4" l="s" occupation="2" />
</valence-configuration>
</pseudo-atom-spec>
<grid npts="457">
<annotation type="sampled from oncvpsp log grid"
 recipe="r(i:1..N) = r1*exp(a*(i-1)) + r=0; resampled"
 recipe-cont="r1: scale; a: step" scale="0.227272727273E-04"
 step="0.119285708653E-01" delta="0.500000000000E-02" rmax="44.2272058873" />
<grid-data>
  0.000000000000E+00  5.050326870634E-03  1.008763158867E-02  1.513305596120E-02
  2.014925244947E-02  2.527485517356E-02  3.058981678310E-02  3.572099424244E-02
  4.072950911740E-02  4.588960304035E-02  5.109035418629E-02  5.620604328253E-02
  6.183396752268E-02  6.721879163176E-02  7.307255428460E-02  7.849416313563E-02
  8.431802756430E-02  8.949999295644E-02  9.500042838519E-02  1.008389061859E-01
  1.070362015583E-01  1.122671605650E-01  1.177537614174E-01  1.235084975710E-01
  1.295444730481E-01  1.358754322768E-01  1.425157913881E-01  1.477081729672E-01
  1.530897323645E-01  1.586673620330E-01  1.644482055438E-01  1.704396667347E-01
  1.766494191929E-01  1.830854160832E-01  1.897559003335E-01  1.966694151926E-01
  2.038348151717E-01  2.112612773846E-01  2.163619696658E-01  2.215858130614E-01
  2.269357809319E-01  2.324149184268E-01  2.380263442172E-01  2.437732522720E-01
  2.496589136749E-01  2.556866784866E-01  2.618599776520E-01  2.681823249525E-01
  2.746573190061E-01  2.812886453162E-01  2.880800783687E-01  2.950354837808E-01
  3.021588205013E-01  3.094541430634E-01  3.169256038936E-01  3.245774556740E-01
  3.324140537638E-01  3.404398586778E-01  3.486594386257E-01  3.570774721119E-01
  3.656987505986E-01  3.745281812330E-01  3.835707896407E-01  3.928317227858E-01
  4.023162519008E-01  4.120297754867E-01  4.219778223860E-01  4.270415562546E-01
  4.321660549297E-01  4.373520475889E-01  4.426002721599E-01  4.479114754258E-01
  4.532864131309E-01  4.587258500885E-01  4.642305602896E-01  4.698013270131E-01
  4.754389429372E-01  4.811442102525E-01  4.869179407755E-01  4.927609560648E-01
  4.986740875376E-01  5.046581765880E-01  5.107140747071E-01  5.168426436036E-01
  5.230447553268E-01  5.293212923907E-01  5.356731478994E-01  5.421012256742E-01
  5.486064403823E-01  5.551897176669E-01  5.618519942789E-01  5.685942182102E-01
  5.754173488288E-01  5.823223570147E-01  5.893102252989E-01  5.963819480025E-01
  6.035385313785E-01  6.107809937550E-01  6.181103656801E-01  6.255276900683E-01
  6.330340223491E-01  6.406304306173E-01  6.483179957847E-01  6.560978117341E-01
  6.639709854749E-01  6.719386373006E-01  6.800019009482E-01  6.881619237596E-01
  6.964198668447E-01  7.047769052468E-01  7.132342281098E-01  7.217930388471E-01
  7.304545553133E-01  7.392200099770E-01  7.480906500968E-01  7.570677378979E-01
  7.661525507527E-01  7.753463813617E-01  7.846505379381E-01  7.940663443933E-01
  8.035951405261E-01  8.132382822124E-01  8.229971415989E-01  8.328731072981E-01
  8.428675845857E-01  8.529819956007E-01  8.632177795479E-01  8.735763929025E-01
  8.840593096173E-01  8.946680213327E-01  9.054040375887E-01  9.162688860398E-01
  9.272641126723E-01  9.383912820243E-01  9.496519774086E-01  9.610478011375E-01
  9.725803747512E-01  9.842513392482E-01  9.960623553192E-01  1.008015103583E+00
  1.020111284826E+00  1.032352620244E+00  1.044740851687E+00  1.057277741907E+00
  1.069965074810E+00  1.082804655708E+00  1.095798311576E+00  1.108947891315E+00
  1.122255266011E+00  1.135722329203E+00  1.149350997153E+00  1.163143209119E+00
  1.177100927629E+00  1.191226138760E+00  1.205520852425E+00  1.219987102654E+00
  1.234626947886E+00  1.249442471261E+00  1.264435780916E+00  1.279609010287E+00
  1.294964318411E+00  1.310503890231E+00  1.326229936914E+00  1.342144696157E+00
  1.358250432511E+00  1.374549437701E+00  1.391044030954E+00  1.407736559325E+00
  1.424629398037E+00  1.441724950813E+00  1.459025650223E+00  1.476533958026E+00
  1.494252365522E+00  1.512183393908E+00  1.530329594635E+00  1.548693549771E+00
  1.567277872368E+00  1.586085206837E+00  1.605118229319E+00  1.624379648071E+00
  1.643872203847E+00  1.663598670294E+00  1.683561854337E+00  1.703764596589E+00
  1.724209771748E+00  1.744900289009E+00  1.765839092477E+00  1.787029161587E+00
  1.808473511526E+00  1.830175193664E+00  1.852137295988E+00  1.874362943540E+00
  1.896855298863E+00  1.919617562449E+00  1.942652973198E+00  1.965964808877E+00
  1.989556386583E+00  2.013431063222E+00  2.037592235981E+00  2.062043342813E+00
  2.086787862926E+00  2.111829317282E+00  2.137171269089E+00  2.162817324318E+00
  2.188771132210E+00  2.215036385796E+00  2.241616822426E+00  2.268516224295E+00
  2.295738418987E+00  2.323287280014E+00  2.351166727375E+00  2.379380728103E+00
  2.407933296840E+00  2.436828496402E+00  2.466070438359E+00  2.495663283620E+00
  2.525611243023E+00  2.555918577939E+00  2.586589600875E+00  2.617628676085E+00
  2.649040220198E+00  2.680828702840E+00  2.712998647275E+00  2.745554631042E+00
  2.778501286614E+00  2.811843302054E+00  2.845585421678E+00  2.879732446738E+00
  2.914289236099E+00  2.949260706933E+00  2.984651835416E+00  3.020467657441E+00
  3.056713269330E+00  3.093393828562E+00  3.130514554505E+00  3.168080729159E+00
  3.206097697909E+00  3.244570870284E+00  3.283505720727E+00  3.322907789376E+00
  3.362782682848E+00  3.403136075042E+00  3.443973707943E+00  3.485301392438E+00
  3.527125009147E+00  3.569450509257E+00  3.612283915368E+00  3.655631322353E+00
  3.699498898221E+00  3.743892885000E+00  3.788819599620E+00  3.834285434815E+00
  3.880296860033E+00  3.926860422353E+00  3.973982747421E+00  4.021670540391E+00
  4.069930586875E+00  4.118769753918E+00  4.168194990965E+00  4.218213330856E+00
  4.268831890827E+00  4.320057873516E+00  4.371898567999E+00  4.424361350815E+00
  4.477453687024E+00  4.531183131269E+00  4.585557328844E+00  4.640584016790E+00
  4.696271024992E+00  4.752626277291E+00  4.809657792619E+00  4.867373686130E+00
  4.925782170364E+00  4.984891556408E+00  5.044710255085E+00  5.105246778146E+00
  5.166509739484E+00  5.228507856358E+00  5.291249950634E+00  5.354744950042E+00
  5.419001889442E+00  5.484029912116E+00  5.549838271061E+00  5.616436330314E+00
  5.683833566277E+00  5.752039569073E+00  5.821064043902E+00  5.890916812428E+00
  5.961607814178E+00  6.033147107948E+00  6.105544873243E+00  6.178811411722E+00
  6.252957148663E+00  6.327992634447E+00  6.403928546060E+00  6.480775688613E+00
  6.558544996876E+00  6.637247536839E+00  6.716894507281E+00  6.797497241368E+00
  6.879067208264E+00  6.961616014764E+00  7.045155406941E+00  7.129697271824E+00
  7.215253639086E+00  7.301836682755E+00  7.389458722948E+00  7.478132227623E+00
  7.567869814355E+00  7.658684252127E+00  7.750588463153E+00  7.843595524710E+00
  7.937718671007E+00  8.032971295059E+00  8.129366950600E+00  8.226919354007E+00
  8.325642386255E+00  8.425550094890E+00  8.526656696029E+00  8.628976576381E+00
  8.732524295298E+00  8.837314586841E+00  8.943362361883E+00  9.050682710226E+00
  9.159290902749E+00  9.269202393582E+00  9.380432822305E+00  9.492998016172E+00
  9.606913992366E+00  9.722196960275E+00  9.838863323798E+00  9.956929683684E+00
  1.007641283989E+01  1.019732979397E+01  1.031969775149E+01  1.044353412451E+01
  1.056885653401E+01  1.069568281241E+01  1.082403100616E+01  1.095391937824E+01
  1.108536641078E+01  1.121839080771E+01  1.135301149740E+01  1.148924763537E+01
  1.162711860699E+01  1.176664403027E+01  1.190784375864E+01  1.205073788374E+01
  1.219534673835E+01  1.234169089921E+01  1.248979119000E+01  1.263966868428E+01
  1.279134470849E+01  1.294484084499E+01  1.310017893513E+01  1.325738108235E+01
  1.341646965534E+01  1.357746729120E+01  1.374039689870E+01  1.390528166148E+01
  1.407214504142E+01  1.424101078192E+01  1.441190291130E+01  1.458484574624E+01
  1.475986389519E+01  1.493698226193E+01  1.511622604908E+01  1.529762076167E+01
  1.548119221081E+01  1.566696651734E+01  1.585497011554E+01  1.604522975693E+01
  1.623777251401E+01  1.643262578418E+01  1.662981729359E+01  1.682937510111E+01
  1.703132760233E+01  1.723570353356E+01  1.744253197596E+01  1.765184235967E+01
  1.786366446799E+01  1.807802844160E+01  1.829496478290E+01  1.851450436030E+01
  1.873667841262E+01  1.896151855357E+01  1.918905677621E+01  1.941932545753E+01
  1.965235736302E+01  1.988818565138E+01  2.012684387919E+01  2.036836600574E+01
  2.061278639781E+01  2.086013983458E+01  2.111046151260E+01  2.136378705075E+01
  2.162015249536E+01  2.187959432530E+01  2.214214945721E+01  2.240785525069E+01
  2.267674951370E+01  2.294887050787E+01  2.322425695396E+01  2.350294803741E+01
  2.378498341386E+01  2.407040321482E+01  2.435924805340E+01  2.465155903004E+01
  2.494737773840E+01  2.524674627126E+01  2.554970722652E+01  2.585630371324E+01
  2.616657935780E+01  2.648057831009E+01  2.679834524981E+01  2.711992539281E+01
  2.744536449752E+01  2.777470887149E+01  2.810800537795E+01  2.844530144249E+01
  2.878664505980E+01  2.913208480051E+01  2.948166981812E+01  2.983544985594E+01
  3.019347525421E+01  3.055579695726E+01  3.092246652075E+01  3.129353611899E+01
  3.166905855242E+01  3.204908725505E+01  3.243367630211E+01  3.282288041774E+01
  3.321675498275E+01  3.361535604254E+01  3.401874031505E+01  3.442696519883E+01
  3.484008878122E+01  3.525816984660E+01  3.568126788475E+01  3.610944309937E+01
  3.654275641656E+01  3.698126949356E+01  3.742504472749E+01  3.787414526422E+01
  3.832863500739E+01  3.878857862747E+01  3.925404157100E+01  3.972509006986E+01
  4.020179115069E+01  4.068421264450E+01  4.117242319624E+01  4.166649227459E+01
  4.216649018189E+01  4.267248806407E+01  4.318455792084E+01  4.370277261589E+01
  4.422720588728E+01
</grid-data>
</grid>
<valence-charge total-charge="12" is-unscreening-charge="yes"
 rescaled-to-z-pseudo="no">
<radfunc>
<data npts="457">
  1.930502407332E+00  1.932701973311E+00  1.939276848979E+00  1.950244801218E+00
  1.965491526213E+00  1.985534950833E+00  2.011072787273E+00  2.040305821093E+00
  2.073162451321E+00  2.111461316757E+00  2.154608437634E+00  2.201479493659E+00
  2.258088194627E+00  2.317165824517E+00  2.386797703220E+00  2.456273448704E+00
  2.536194045298E+00  2.611867773461E+00  2.696842609847E+00  2.792219903508E+00
  2.899219821536E+00  2.994089674820E+00  3.098011783757E+00  3.211798718661E+00
  3.336324761264E+00  3.472527987519E+00  3.621411713721E+00  3.742036769962E+00
  3.870869848041E+00  4.008406377138E+00  4.155161255164E+00  4.311667692489E+00
  4.478475588817E+00  4.656149356033E+00  4.845265087206E+00  5.046406957968E+00
  5.260162731295E+00  5.487118220306E+00  5.646040645994E+00  5.811253678424E+00
  5.982920011012E+00  6.161196414250E+00  6.346232180581E+00  6.538167390838E+00
  6.737130987901E+00  6.943238642829E+00  7.156590398496E+00  7.377268075665E+00
  7.605332426678E+00  7.840820022443E+00  8.083739859346E+00  8.334069674107E+00
  8.591751956622E+00  8.856689653487E+00  9.128741558465E+00  9.407717390588E+00
  9.693372566182E+00  9.985402677982E+00  1.028343770273E+01  1.058703596862E+01
  1.089567792548E+01  1.120875977437E+01  1.152558702856E+01  1.184536809599E+01
  1.216720799284E+01  1.249010232022E+01  1.281293165971E+01  1.297393944302E+01
  1.313445656929E+01  1.329430866561E+01  1.345331338835E+01  1.361128035316E+01
  1.376801108763E+01  1.392329900877E+01  1.407692942785E+01  1.422867958502E+01
  1.437831871630E+01  1.452560815558E+01  1.467030147426E+01  1.481214466136E+01
  1.495087634668E+01  1.508622806988E+01  1.521792459804E+01  1.534568429449E+01
  1.546921954134E+01  1.558823721824E+01  1.570243923961E+01  1.581152315250E+01
  1.591518279686E+01  1.601310902996E+01  1.610499051614E+01  1.619051458286E+01
  1.626936814360E+01  1.634123868765E+01  1.640581533626E+01  1.646278996434E+01
  1.651185838587E+01  1.655272160098E+01  1.658508710152E+01  1.660867023162E+01
  1.662319559864E+01  1.662839852928E+01  1.662402656473E+01  1.660984098796E+01
  1.658561837531E+01  1.655115216375E+01  1.650625422436E+01  1.645075643177E+01
  1.638451221851E+01  1.630739810256E+01  1.621931517574E+01  1.612019054005E+01
  1.600997867855E+01  1.588866274710E+01  1.575625577307E+01  1.561280174710E+01
  1.545837659383E+01  1.529308900812E+01  1.511708114346E+01  1.493052913981E+01
  1.473364347901E+01  1.452666915678E+01  1.430988566125E+01  1.408360674956E+01
  1.384818001496E+01  1.360398623892E+01  1.335143852401E+01  1.309098120508E+01
  1.282308853841E+01  1.254826316998E+01  1.226703438609E+01  1.197995615152E+01
  1.168760494224E+01  1.139057738161E+01  1.108948769073E+01  1.078496496559E+01
  1.047765029514E+01  1.016819373631E+01  9.857251163322E+00  9.545481010425E+00
  9.233540928564E+00  8.922084377909E+00  8.611757179684E+00  8.303194052093E+00
  7.997015156551E+00  7.693822681771E+00  7.394197494611E+00  7.098695887819E+00
  6.807846455973E+00  6.522147131877E+00  6.242062416414E+00  5.968020835248E+00
  5.700412655762E+00  5.439587897052E+00  5.185854664617E+00  4.939477839509E+00
  4.700678148969E+00  4.469631642054E+00  4.246469589297E+00  4.031278820184E+00
  3.824102506099E+00  3.624941389642E+00  3.433756127058E+00  3.250472836292E+00
  3.074990489660E+00  2.907184460622E+00  2.746909253582E+00  2.594003423483E+00
  2.448291440509E+00  2.309585657340E+00  2.177688211549E+00  2.052392894675E+00
  1.933486964664E+00  1.820752891879E+00  1.713970026038E+00  1.612916171150E+00
  1.517369054948E+00  1.427107679061E+00  1.341913536058E+00  1.261571679950E+00
  1.185871637665E+00  1.114608150660E+00  1.047581578272E+00  9.845966645427E-01
  9.254612900500E-01  8.699868384555E-01  8.179886531089E-01  7.692864409282E-01
  7.237046251914E-01  6.810726490567E-01  6.412252317882E-01  6.040025797964E-01
  5.692505547191E-01  5.368208008585E-01  5.065708343725E-01  4.783640966735E-01
  4.520699745481E-01  4.275637895475E-01  4.047267592456E-01  3.834459329905E-01
  3.636141048106E-01  3.451297061556E-01  3.278966811625E-01  3.118243471176E-01
  2.968272427361E-01  2.828249667839E-01  2.697420094116E-01  2.575075783658E-01
  2.460554219731E-01  2.353236504866E-01  2.252545570520E-01  2.157944392206E-01
  2.068934216356E-01  1.985052802749E-01  1.905872684558E-01  1.830999447151E-01
  1.760070026496E-01  1.692751028437E-01  1.628737070776E-01  1.567749151018E-01
  1.509533043463E-01  1.453857729966E-01  1.400513869048E-01  1.349312308071E-01
  1.300082642982E-01  1.252671829633E-01  1.206942850067E-01  1.162773436446E-01
  1.120054854534E-01  1.078690747944E-01  1.038596043664E-01  9.996959187989E-02
  9.619248279519E-02  9.252255902285E-02  8.895485345256E-02  8.548507014787E-02
  8.210951002410E-02  7.882500181131E-02  7.562883809359E-02  7.251871620828E-02
  6.949268378545E-02  6.654908870541E-02  6.368653325299E-02  6.090383224892E-02
  5.819997494207E-02  5.557409045076E-02  5.302541654688E-02  5.055327158300E-02
  4.815702936990E-02  4.583609681991E-02  4.358989418015E-02  4.141783768872E-02
  3.931932449647E-02  3.729371970643E-02  3.534034539252E-02  3.345847146822E-02
  3.164730828461E-02  2.990600084453E-02  2.823362452655E-02  2.662918221756E-02
  2.509160275673E-02  2.361974059626E-02  2.221237658540E-02  2.086821978435E-02
  1.958591021451E-02  1.836402244690E-02  1.720106993079E-02  1.609550996829E-02
  1.504574922890E-02  1.405014970431E-02  1.310703500243E-02  1.221469688184E-02
  1.137140193024E-02  1.057539829519E-02  9.824922380829E-03  9.118205430708E-03
  8.453479924798E-03  7.828985726702E-03  7.242975925987E-03  6.693722329569E-03
  6.179520565064E-03  5.698694767909E-03  5.249601832520E-03  4.830635215755E-03
  4.440228288274E-03  4.076857236076E-03  3.739043520327E-03  3.425355908723E-03
  3.134412095902E-03  2.864879933937E-03  2.615478296723E-03  2.384977604110E-03
  2.172200033062E-03  1.976019443911E-03  1.795361050065E-03  1.629200859312E-03
  1.476564914265E-03  1.336528358508E-03  1.208214353768E-03  1.090792871935E-03
  9.834793840863E-04  8.855334668997E-04  7.962573449553E-04  7.149943855533E-04
  6.411275607966E-04  5.740778898698E-04  5.133028727179E-04  4.582949247083E-04
  4.085798203821E-04  3.637151530655E-04  3.232888159403E-04  2.869175091510E-04
  2.542452766681E-04  2.249420759058E-04  1.987023825099E-04  1.752438322622E-04
  1.543059016796E-04  1.356486285987E-04  1.190513738151E-04  1.043116246699E-04
  9.124384133374E-05  7.967834641695E-05  6.946025841974E-05  6.044846942726E-05
  5.251466733782E-05  4.554240279121E-05  3.942620083277E-05  3.407071720936E-05
  2.938993904608E-05  2.530642949997E-05  2.175061583206E-05  1.866012018416E-05
  1.597913219605E-05  1.365782245396E-05  1.165179562654E-05  9.921582020742E-06
  8.432166180678E-06  7.152551057704E-06  6.055356201576E-06  5.116448360531E-06
  4.314602832902E-06  3.631193883981E-06  3.049912528641E-06  2.556509981892E-06
  2.138565094820E-06  1.785274121112E-06  1.487261198048E-06  1.236407974111E-06
  1.025700871663E-06  8.490945360782E-07  7.013900908433E-07  5.781268901368E-07
  4.754865350165E-07  3.902079954671E-07  3.195127571366E-07  2.610389877363E-07
  2.127837930078E-07  1.730527051960E-07  1.404156175729E-07  1.136684462729E-07
  9.179986519251E-08  7.396252071957E-08  5.944819041779E-08  4.766640340696E-08
  3.812609001496E-08  3.041987435540E-08  2.421066587546E-08  1.922024472047E-08
  1.521957113895E-08  1.202058122374E-08  9.469260179809E-09  7.439810465859E-09
  5.829757172636E-09  4.555842381766E-09  3.428871784380E-09  2.665153128600E-09
  2.065780823763E-09  1.596703084397E-09  1.230632592575E-09  9.457650258124E-10
  7.247274644073E-10  5.537180092534E-10  4.218039514615E-10  3.203510051659E-10
  2.425605421174E-10  1.830955445086E-10  1.377792046882E-10  1.033528219590E-10
  7.728194426636E-11  5.760163539035E-11  4.279336839472E-11  3.168739927710E-11
  2.338560095854E-11  1.720067165218E-11  1.260840330705E-11  9.210331110336E-12
  6.704606148123E-12  4.863359225088E-12  3.515170645556E-12  2.531542106275E-12
  1.816494248656E-12  1.298596520545E-12  9.248828759154E-13  6.562242125997E-13
  4.638218807606E-13  3.265606828318E-13  2.290183047771E-13  1.599741582721E-13
  1.112966910011E-13  7.711637985233E-14  5.321350899717E-14  3.656677839536E-14
  2.502185060959E-14  1.704897197890E-14  1.156647053167E-14  7.812768818274E-15
  5.253973083776E-15  3.517438217049E-15  2.344215891172E-15  1.555169282232E-15
  1.026934684959E-15  6.749458404046E-16  4.415008476608E-16  2.874126879988E-16
  1.861945948023E-16  1.200299407710E-16  7.699239706611E-17  4.913781350731E-17
  3.120091053020E-17  1.970949070005E-17  1.238549572191E-17  7.742018788788E-18
  4.813604164790E-18  2.976692256090E-18  1.830697797484E-18  1.119669752243E-18
  6.809651106366E-19  4.118054778845E-19  2.476065226875E-19  1.480146662224E-19
  8.796092102486E-20  5.196206599195E-20  3.051150147192E-20  1.780696087566E-20
  1.032840429456E-20  5.953352697495E-21  3.409905276173E-21  1.940628001728E-21
  1.097306841750E-21  6.164044893570E-22  3.439703728265E-22  1.906596670631E-22
  1.049649553051E-22  0.000000000000E+00  0.000000000000E+00  0.000000000000E+00
  0.000000000000E+00
</data>
</radfunc>
</valence-charge>
<pseudocore-charge matching-radius="0.535673147899"
 number-of-continuous-derivatives="4">
<annotation model-charge-form="Teter function with specified parameters" />
<radfunc>
<data npts="290">
  4.086669396137E+01  4.086083881032E+01  4.084333839255E+01  4.081415034597E+01
  4.077358694313E+01  4.072028218253E+01  4.065239828473E+01  4.057473733816E+01
  4.048750767457E+01  4.038590673335E+01  4.027154335169E+01  4.014742842344E+01
  3.999769286509E+01  3.984161847521E+01  3.965791203327E+01  3.947488706366E+01
  3.926467836904E+01  3.906596603952E+01  3.884320659447E+01  3.859365020085E+01
  3.831427554553E+01  3.806709381900E+01  3.779688645770E+01  3.750169752783E+01
  3.717944454864E+01  3.682791904422E+01  3.644478950593E+01  3.613523339390E+01
  3.580545169491E+01  3.545434033445E+01  3.508076851280E+01  3.468358389722E+01
  3.426161901279E+01  3.381369898468E+01  3.333865079285E+01  3.283531420730E+01
  3.230255457591E+01  3.173927763689E+01  3.134629065499E+01  3.093898888264E+01
  3.051710111224E+01  3.008037711098E+01  2.962859089352E+01  2.916154422785E+01
  2.867907037540E+01  2.818103806340E+01  2.766735568481E+01  2.713797571695E+01
  2.659289934583E+01  2.603218127804E+01  2.545593471664E+01  2.486433647072E+01
  2.425763216173E+01  2.363614148121E+01  2.300026344648E+01  2.235048159133E+01
  2.168736901875E+01  2.101159323223E+01  2.032392065147E+01  1.962522070659E+01
  1.891646939403E+01  1.819875216616E+01  1.747326601579E+01  1.674132060771E+01
  1.600433830072E+01  1.526385289799E+01  1.452150695970E+01  1.415017830761E+01
  1.377904751226E+01  1.340834828165E+01  1.303831999206E+01  1.266920739171E+01
  1.230126027113E+01  1.193473309959E+01  1.156988462674E+01  1.120697744877E+01
  1.084627753877E+01  1.048805374085E+01  1.013257722789E+01  9.780120922992E+00
  9.430958885049E+00  9.085365658683E+00  8.743615589578E+00  8.405982106116E+00
  8.072736968710E+00  7.744149488465E+00  7.420485717152E+00  7.102007610812E+00
  6.788972169658E+00  6.481630557318E+00  6.180227202823E+00  5.884998889151E+00
  5.596173832491E+00  5.313970756798E+00  5.038597968591E+00  4.770252437300E+00
  4.509118886853E+00  4.255368904507E+00  4.009160073267E+00  3.770635134508E+00
  3.539921187667E+00  3.317128934078E+00  3.102351972179E+00  2.895666151422E+00
  2.697128992232E+00  2.506779179350E+00  2.324636135749E+00  2.150699684135E+00
  1.984949802735E+00  1.827346481686E+00  1.677829685856E+00  1.536319429325E+00
  1.402715966038E+00  1.276900100355E+00  1.158733620272E+00  1.048059855076E+00
  9.447043580618E-01  8.484757137028E-01  7.591664673745E-01  6.765541743153E-01
  6.004025630780E-01  5.304628072170E-01  4.664748974383E-01  4.081691049081E-01
  3.552675249100E-01  3.074856885769E-01  2.645342290332E-01  2.261205870021E-01
  1.919507397797E-01  1.617309364970E-01  1.351694218061E-01  1.119781295714E-01
  9.187432784790E-02  7.458219641684E-02  5.983431844042E-02  4.737306841558E-02
  3.695187956190E-02  2.833637507654E-02  2.130534932839E-02  1.565158703450E-02
  1.118251074446E-02  7.720649525273E-03  5.103924551091E-03  3.185750311461E-03
  1.834953300832E-03  9.355132749633E-04  3.861353828870E-04  9.966462650896E-05
  2.357080129364E-06  3.302503336311E-05  1.420756185370E-04  2.904644666341E-04
  4.485874303241E-04  5.951343548771E-04  7.159292176562E-04  8.027806609080E-04
  8.523659966080E-04  8.651701737506E-04  8.444989985547E-04  7.955831414712E-04
  7.247862303240E-04  6.389267174932E-04  5.447193417563E-04  4.483380193389E-04
  3.550980421400E-04  2.692516873760E-04  1.938879037210E-04  1.309237768867E-04
  8.117311816411E-05  4.447586407778E-05  1.987109426473E-05  5.796401545772E-06
  2.970758543387E-07  1.230042706907E-06  6.449635914376E-06  1.396495345607E-05
  2.206158273318E-05  2.938370104843E-05  3.497576080005E-05  3.828595832337E-05
  3.913627607511E-05  3.766592267987E-05  3.425635658123E-05  2.944669864114E-05
  2.384820533225E-05  1.806563428287E-05  1.263189136763E-05  7.960455714443E-06
  4.317924988090E-06  1.816817496264E-06  4.267206340205E-07  1.785512589887E-10
  3.085190767493E-07  1.082229822660E-06  2.050539447591E-06  2.975505755800E-06
  3.677054525536E-06  4.046893180805E-06  4.050846096253E-06  3.720714504029E-06
  3.138057576062E-06  2.413164670366E-06  1.662844178960E-06  9.904678384244E-07
  4.710343060585E-07  1.429760791512E-07  7.205360395695E-09  0.000000000000E+00
  0.000000000000E+00  0.000000000000E+00  0.000000000000E+00  0.000000000000E+00
  0.000000000000E+00  0.000000000000E+00  0.000000000000E+00  0.000000000000E+00
  0.000000000000E+00  0.000000000000E+00  0.000000000000E+00  0.000000000000E+00
  0.000000000000E+00  0.000000000000E+00  0.000000000000E+00  0.000000000000E+00
  0.000000000000E+00  0.000000000000E+00  0.000000000000E+00  0.000000000000E+00
  0.000000000000E+00  0.000000000000E+00  0.000000000000E+00  0.000000000000E+00
  0.000000000000E+00  0.000000000000E+00  0.000000000000E+00  0.000000000000E+00
  0.000000000000E+00  0.000000000000E+00  0.000000000000E+00  0.000000000000E+00
  0.000000000000E+00  0.000000000000E+00  0.000000000000E+00  0.000000000000E+00
  0.000000000000E+00  0.000000000000E+00  0.000000000000E+00  0.000000000000E+00
  0.000000000000E+00  0.000000000000E+00  0.000000000000E+00  0.000000000000E+00
  0.000000000000E+00  0.000000000000E+00  0.000000000000E+00  0.000000000000E+00
  0.000000000000E+00  0.000000000000E+00  0.000000000000E+00  0.000000000000E+00
  0.000000000000E+00  0.000000000000E+00  0.000000000000E+00  0.000000000000E+00
  0.000000000000E+00  0.000000000000E+00  0.000000000000E+00  0.000000000000E+00
  0.000000000000E+00  0.000000000000E+00  0.000000000000E+00  0.000000000000E+00
  0.000000000000E+00  0.000000000000E+00  0.000000000000E+00  0.000000000000E+00
  0.000000000000E+00  0.000000000000E+00  0.000000000000E+00  0.000000000000E+00
  0.000000000000E+00  0.000000000000E+00  0.000000000000E+00  0.000000000000E+00
  0.000000000000E+00  0.000000000000E+00  0.000000000000E+00  0.000000000000E+00
  0.000000000000E+00  0.000000000000E+00
</data>
</radfunc>
</pseudocore-charge>
<semilocal-potentials set="scalar_relativistic">
<slps n="3" l="s" rc="1.35825043251">
<radfunc>
<data npts="290">
 -2.181102365452E+00 -2.183695091032E+00 -2.191438916260E+00 -2.204347642897E+00
 -2.222274114028E+00 -2.245808440703E+00 -2.275741801144E+00 -2.309934643371E+00
 -2.348274828745E+00 -2.392844405867E+00 -2.442900605830E+00 -2.497091406624E+00
 -2.562284374212E+00 -2.630023764258E+00 -2.709478448762E+00 -2.788341685283E+00
 -2.878555036833E+00 -2.963480115112E+00 -3.058275699927E+00 -3.163968028526E+00
 -3.281659042692E+00 -3.385238170642E+00 -3.497880285761E+00 -3.620243576823E+00
 -3.753007481844E+00 -3.896867662967E+00 -4.052529578866E+00 -4.177446552649E+00
 -4.309695920528E+00 -4.449568417320E+00 -4.597346497328E+00 -4.753300871677E+00
 -4.917686650186E+00 -5.090739079464E+00 -5.272668875061E+00 -5.463657152949E+00
 -5.663849974178E+00 -5.873352526222E+00 -6.018223818434E+00 -6.167264027949E+00
 -6.320466035498E+00 -6.477810405188E+00 -6.639264484015E+00 -6.804781494972E+00
 -6.974299629261E+00 -7.147741143622E+00 -7.325011469121E+00 -7.505998338357E+00
 -7.690570938286E+00 -7.878579096384E+00 -8.069852508149E+00 -8.264200014297E+00
 -8.461408936388E+00 -8.661244479809E+00 -8.863449213460E+00 -9.067742635656E+00
 -9.273820836122E+00 -9.481356264175E+00 -9.689997613384E+00 -9.899369833249E+00
 -1.010907427838E+01 -1.031868900562E+01 -1.052776922925E+01 -1.073584794333E+01
 -1.094243671964E+01 -1.114702668721E+01 -1.134908969743E+01 -1.144900360462E+01
 -1.154807967533E+01 -1.164624710092E+01 -1.174343415386E+01 -1.183956824505E+01
 -1.193457598372E+01 -1.202838323952E+01 -1.212091520690E+01 -1.221209647144E+01
 -1.230185107810E+01 -1.239010260113E+01 -1.247677421557E+01 -1.256178877013E+01
 -1.264506886142E+01 -1.272653690930E+01 -1.280611523339E+01 -1.288372613059E+01
 -1.295929195376E+01 -1.303273519143E+01 -1.310397854867E+01 -1.317294502935E+01
 -1.323955801978E+01 -1.330374137403E+01 -1.336541950116E+01 -1.342451745455E+01
 -1.348096102366E+01 -1.353467682845E+01 -1.358559241677E+01 -1.363363636490E+01
 -1.367873838159E+01 -1.372082941558E+01 -1.375984176691E+01 -1.379570920201E+01
 -1.382836707245E+01 -1.385775243734E+01 -1.388380418912E+01 -1.390646318220E+01
 -1.392567236421E+01 -1.394137690882E+01 -1.395352434960E+01 -1.396206471355E+01
 -1.396695065325E+01 -1.396813757600E+01 -1.396558376844E+01 -1.395925051468E+01
 -1.394910220605E+01 -1.393510644042E+01 -1.391723410908E+01 -1.389545946913E+01
 -1.386976019972E+01 -1.384011744066E+01 -1.380651581245E+01 -1.376894341727E+01
 -1.372739182150E+01 -1.368185602077E+01 -1.363233439011E+01 -1.357882862235E+01
 -1.352134365966E+01 -1.345988762386E+01 -1.339447175305E+01 -1.332511035282E+01
 -1.325182077209E+01 -1.317462341474E+01 -1.309354179918E+01 -1.300860267959E+01
 -1.291983624322E+01 -1.282727639915E+01 -1.273096117498E+01 -1.263093323795E+01
 -1.252724055819E+01 -1.241993723124E+01 -1.230908447726E+01 -1.219475183360E+01
 -1.207701855630E+01 -1.195597524407E+01 -1.183172569589E+01 -1.170438900931E+01
 -1.157410192162E+01 -1.144102138926E+01 -1.130532739273E+01 -1.116722594355E+01
 -1.102695225757E+01 -1.088477404362E+01 -1.074099483963E+01 -1.059595730876E+01
 -1.045004638662E+01 -1.030369214862E+01 -1.015737224326E+01 -1.001161371570E+01