Te    ONCVPSP-3.3.0  r_core=   1.30874   1.30874   1.51015
52.0000     24.0000      180506    zatom,zion,pspd
8      11   2     4   600     0    pspcod,pspxc,lmax,lloc,mmax,r2well
5.99000000  5.00000000  0.00000000    rchrg fchrg qchrg
2     4     2     0    nproj
3     1           extension_switch
4     4     0    nprojso
0                        -3.9037869467650D-01  9.1168190655600D+00
1  0.0000000000000D+00 -1.0750559720218D-08 -5.2827253682608D-10
2  1.0000000000000D-02  6.7227013821716D-02  9.1919178968311D-02
3  2.0000000000000D-02  1.3377804402029D-01  1.8355755687760D-01
4  3.0000000000000D-02  1.9898653902547D-01  2.7463558179732D-01
5  4.0000000000000D-02  2.6220465301600D-01  3.6487619013887D-01
6  5.0000000000000D-02  3.2281220571201D-01  4.5400602617708D-01
7  6.0000000000000D-02  3.8022517828764D-01  5.4175663237611D-01
8  7.0000000000000D-02  4.3390360366078D-01  6.2786560142052D-01
9  8.0000000000000D-02  4.8335872016769D-01  7.1207768138052D-01
10  9.0000000000000D-02  5.2815927070890D-01  7.9414582608373D-01
11  1.0000000000000D-01  5.6793684462922D-01  8.7383218351228D-01
12  1.1000000000000D-01  6.0239017660010D-01  9.5090901588257D-01
13  1.2000000000000D-01  6.3128833530702D-01  1.0251595459794D+00
14  1.3000000000000D-01  6.5447275447948D-01  1.0963787252916D+00
15  1.4000000000000D-01  6.7185807938589D-01  1.1643739205171D+00
16  1.5000000000000D-01  6.8343182298535D-01  1.2289655160509D+00
17  1.6000000000000D-01  6.8925284710555D-01  1.2899874311274D+00
18  1.7000000000000D-01  6.8944870492386D-01  1.3472875513332D+00
19  1.8000000000000D-01  6.8421190129079D-01  1.4007280752298D+00
20  1.9000000000000D-01  6.7379514668691D-01  1.4501857778002D+00
21  2.0000000000000D-01  6.5850569849693D-01  1.4955521933505D+00
22  2.1000000000000D-01  6.3869889949320D-01  1.5367337213402D+00
23  2.2000000000000D-01  6.1477103764704D-01  1.5736516593650D+00
24  2.3000000000000D-01  5.8715166336728D-01  1.6062421681679D+00
25  2.4000000000000D-01  5.5629550977661D-01  1.6344561740913D+00
26  2.5000000000000D-01  5.2267416849622D-01  1.6582592148053D+00
27  2.6000000000000D-01  4.8676767748194D-01  1.6776312344371D+00
28  2.7000000000000D-01  4.4905617865524D-01  1.6925663343920D+00
29  2.8000000000000D-01  4.1001180136430D-01  1.7030724861897D+00
30  2.9000000000000D-01  3.7009092311091D-01  1.7091712125442D+00
31  3.0000000000000D-01  3.2972695155733D-01  1.7108972426922D+00
32  3.1000000000000D-01  2.8932376170182D-01  1.7082981476383D+00
33  3.2000000000000D-01  2.4924990945599D-01  1.7014339605299D+00
34  3.3000000000000D-01  2.0983372788225D-01  1.6903767868274D+00
35  3.4000000000000D-01  1.7135939532103D-01  1.6752104082953D+00
36  3.5000000000000D-01  1.3406404585215D-01  1.6560298841293D+00
37  3.6000000000000D-01  9.8135972325042D-02  1.6329411517669D+00
38  3.7000000000000D-01  6.3713950925432D-02  1.6060606291223D+00
39  3.8000000000000D-01  3.0887694301037D-02  1.5755148191571D+00
40  3.9000000000000D-01 -3.0058194737969D-04  1.5414399168687D+00
41  4.0000000000000D-01 -2.9853516686251D-02  1.5039814179609D+00
42  4.1000000000000D-01 -5.7814943391347D-02  1.4632937276849D+00
43  4.2000000000000D-01 -8.4265292404660D-02  1.4195397676096D+00
44  4.3000000000000D-01 -1.0931615393485D-01  1.3728905774275D+00
45  4.4000000000000D-01 -1.3310411794872D-01  1.3235249083325D+00
46  4.5000000000000D-01 -1.5578402255714D-01  1.2716288040422D+00
47  4.6000000000000D-01 -1.7752175558074D-01  1.2173951651844D+00
48  4.7000000000000D-01 -1.9848676441728D-01  1.1610232925452D+00
49  4.8000000000000D-01 -2.1884443689851D-01  1.1027184045829D+00
50  4.9000000000000D-01 -2.3874852034172D-01  1.0426911246635D+00
51  5.0000000000000D-01 -2.5833374734940D-01  9.8115693366677D-01
52  5.1000000000000D-01 -2.7770883502339D-01  9.1833558394653D-01
53  5.2000000000000D-01 -2.9695001912991D-01  8.5445047111017D-01
54  5.3000000000000D-01 -3.1609527642525D-01  7.8972796069307D-01
55  5.4000000000000D-01 -3.3513937696644D-01  7.2439666754576D-01
56  5.5000000000000D-01 -3.5402989390330D-01  6.5868668660899D-01
57  5.6000000000000D-01 -3.7266428127296D-01  5.9282877471007D-01
58  5.7000000000000D-01 -3.9088811091944D-01  5.2705348405949D-01
59  5.8000000000000D-01 -4.0849453817319D-01  4.6159024924015D-01
60  5.9000000000000D-01 -4.2522504277422D-01  3.9666643064055D-01
61  6.0000000000000D-01 -4.4077146700386D-01  3.3250631847030D-01
62  6.1000000000000D-01 -4.5477934767108D-01  2.6933010268373D-01
63  6.2000000000000D-01 -4.6685251285275D-01  2.0735281530375D-01
64  6.3000000000000D-01 -4.7655888854366D-01  1.4678325276275D-01
65  6.4000000000000D-01 -4.8343743535730D-01  8.7822886924801D-02
66  6.5000000000000D-01 -4.8700611117955D-01  3.0664774418513D-02
67  6.6000000000000D-01 -4.8677073313195D-01 -2.4507525247881D-02
68  6.7000000000000D-01 -4.8223459155315D-01 -7.7521011609647D-02
69  6.8000000000000D-01 -4.7290865030072D-01 -1.2821427347022D-01
70  6.9000000000000D-01 -4.5832215215611D-01 -1.7643847531095D-01
71  7.0000000000000D-01 -4.3803343559318D-01 -2.2205828757206D-01
72  7.1000000000000D-01 -4.1164076001029D-01 -2.6495274849056D-01
73  7.2000000000000D-01 -3.7879293096524D-01 -3.0501604538695D-01
74  7.3000000000000D-01 -3.3919951515895D-01 -3.4215820370571D-01
75  7.4000000000000D-01 -2.9264043696839D-01 -3.7630567273972D-01
76  7.5000000000000D-01 -2.3897475427395D-01 -4.0740179779851D-01
77  7.6000000000000D-01 -1.7814842110617D-01 -4.3540716960993D-01
78  7.7000000000000D-01 -1.1020085822240D-01 -4.6029984296824D-01
79  7.8000000000000D-01 -3.5270169800655D-02 -4.8207541803379D-01
80  7.9000000000000D-01  4.6403135118795D-02 -5.0074697924361D-01
81  8.0000000000000D-01  1.3447403437795D-01 -5.1634488848086D-01
82  8.1000000000000D-01  2.2849258948871D-01 -5.2891643095280D-01
83  8.2000000000000D-01  3.2790531103125D-01 -5.3852531411429D-01
84  8.3000000000000D-01  4.3205832620000D-01 -5.4525102191828D-01
85  8.4000000000000D-01  5.4020235077012D-01 -5.4918802864587D-01
86  8.5000000000000D-01  6.5149943580536D-01 -5.5044487853470D-01
87  8.6000000000000D-01  7.6503142734634D-01 -5.4914313935276D-01
88  8.7000000000000D-01  8.7981004568215D-01 -5.4541623992339D-01
89  8.8000000000000D-01  9.9478846019083D-01 -5.3940820336340D-01
90  8.9000000000000D-01  1.1088742067014D+00 -5.3127228941943D-01
91  9.0000000000000D-01  1.2209432674252D+00 -5.2116956074789D-01
92  9.1000000000000D-01  1.3298551092451D+00 -5.0926738925385D-01
93  9.2000000000000D-01  1.4344684550066D+00 -4.9573791965926D-01
94  9.3000000000000D-01  1.5336575448647D+00 -4.8075650828943D-01
95  9.4000000000000D-01  1.6263286310523D+00 -4.6450015563015D-01
96  9.5000000000000D-01  1.7114364399827D+00 -4.4714595150283D-01
97  9.6000000000000D-01  1.7880003305843D+00 -4.2886955172084D-01
98  9.7000000000000D-01  1.8551198773285D+00 -4.0984370482571D-01
99  9.8000000000000D-01  1.9119896109388D+00 -3.9023684693027D-01
100  9.9000000000000D-01  1.9579126582855D+00 -3.7021178189908D-01
101  1.0000000000000D+00  1.9923130369742D+00 -3.4992446295377D-01
102  1.0100000000000D+00  2.0147463779593D+00 -3.2952289044335D-01
103  1.0200000000000D+00  2.0249088716850D+00 -3.0914613891326D-01
104  1.0300000000000D+00  2.0226442592026D+00 -2.8892352478882D-01
105  1.0400000000000D+00  2.0079487196536D+00 -2.6897392394209D-01
106  1.0500000000000D+00  1.9809735374108D+00 -2.4940524627177D-01
107  1.0600000000000D+00  1.9420254665451D+00 -2.3031407215090D-01
108  1.0700000000000D+00  1.8915647488620D+00 -2.1178545308276D-01
109  1.0800000000000D+00  1.8302007779431D+00 -1.9389287657129D-01
110  1.0900000000000D+00  1.7586854421124D+00 -1.7669839262405D-01
111  1.1000000000000D+00  1.6779042159374D+00 -1.6025289698151D-01
112  1.1100000000000D+00  1.5888651083144D+00 -1.4459656374435D-01
113  1.1200000000000D+00  1.4926856138146D+00 -1.2975941766071D-01
114  1.1300000000000D+00  1.3905778464054D+00 -1.1576203432318D-01
115  1.1400000000000D+00  1.2838320679408D+00 -1.0261635447363D-01
116  1.1500000000000D+00  1.1737988494594D+00 -9.0326597039772D-02
117  1.1600000000000D+00  1.0618701345279D+00 -7.8890253630966D-02
118  1.1700000000000D+00  9.4945949000256D-01 -6.8299146253172D-02
119  1.1800000000000D+00  8.3798184627454D-01 -5.8540529005581D-02
120  1.1900000000000D+00  7.2883304264804D-01 -4.9598213718568D-02
121  1.2000000000000D+00  6.2336950008934D-01 -4.1453699132528D-02
122  1.2100000000000D+00  5.2288834024392D-01 -3.4087283458464D-02
123  1.2200000000000D+00  4.2860827257497D-01 -2.7479140001510D-02
124  1.2300000000000D+00  3.4165155792040D-01 -2.1610336418874D-02
125  1.2400000000000D+00  2.6302733827208D-01 -1.6463779339145D-02
126  1.2500000000000D+00  1.9361661282175D-01 -1.2025066691989D-02
127  1.2600000000000D+00  1.3415911240175D-01 -8.2832318477358D-03
128  1.2700000000000D+00  8.5272048742887D-02 -5.2331611806002D-03
129  1.2800000000000D+00  4.7221688773942D-02 -2.8632125612619D-03
130  1.2900000000000D+00  2.0427859159856D-02 -1.1851304040529D-03
131  1.3000000000000D+00  5.7988319388369D-03 -2.4870764326648D-04
132  1.3100000000000D+00  5.7019961721350D-04  6.9425005663327D-05
133  1.3200000000000D+00 -1.6257174167782D-04  4.0753149155536D-05
134  1.3300000000000D+00  1.0534237298725D-04 -1.8464675381107D-05
135  1.3400000000000D+00  7.1281242212089D-06 -1.0872763547430D-06
136  1.3500000000000D+00 -1.5767460631059D-05  3.4541207162883D-06
137  1.3600000000000D+00 -1.7749064559308D-06 -1.0962999206385D-07
138  1.3700000000000D+00 -1.1976998665870D-06 -7.3977885668320D-08
139  1.3800000000000D+00  0.0000000000000D+00  0.0000000000000D+00
140  1.3900000000000D+00  0.0000000000000D+00  0.0000000000000D+00
141  1.4000000000000D+00  0.0000000000000D+00  0.0000000000000D+00
142  1.4100000000000D+00  0.0000000000000D+00  0.0000000000000D+00
143  1.4200000000000D+00  0.0000000000000D+00  0.0000000000000D+00
144  1.4300000000000D+00  0.0000000000000D+00  0.0000000000000D+00
145  1.4400000000000D+00  0.0000000000000D+00  0.0000000000000D+00
146  1.4500000000000D+00  0.0000000000000D+00  0.0000000000000D+00
147  1.4600000000000D+00  0.0000000000000D+00  0.0000000000000D+00
148  1.4700000000000D+00  0.0000000000000D+00  0.0000000000000D+00
149  1.4800000000000D+00  0.0000000000000D+00  0.0000000000000D+00
150  1.4900000000000D+00  0.0000000000000D+00  0.0000000000000D+00
151  1.5000000000000D+00  0.0000000000000D+00  0.0000000000000D+00
152  1.5100000000000D+00  0.0000000000000D+00  0.0000000000000D+00
153  1.5200000000000D+00  0.0000000000000D+00  0.0000000000000D+00
154  1.5300000000000D+00  0.0000000000000D+00  0.0000000000000D+00
155  1.5400000000000D+00  0.0000000000000D+00  0.0000000000000D+00
156  1.5500000000000D+00  0.0000000000000D+00  0.0000000000000D+00
157  1.5600000000000D+00  0.0000000000000D+00  0.0000000000000D+00
158  1.5700000000000D+00  0.0000000000000D+00  0.0000000000000D+00
159  1.5800000000000D+00  0.0000000000000D+00  0.0000000000000D+00
160  1.5900000000000D+00  0.0000000000000D+00  0.0000000000000D+00
161  1.6000000000000D+00  0.0000000000000D+00  0.0000000000000D+00
162  1.6100000000000D+00  0.0000000000000D+00  0.0000000000000D+00
163  1.6200000000000D+00  0.0000000000000D+00  0.0000000000000D+00
164  1.6300000000000D+00  0.0000000000000D+00  0.0000000000000D+00
165  1.6400000000000D+00  0.0000000000000D+00  0.0000000000000D+00
166  1.6500000000000D+00  0.0000000000000D+00  0.0000000000000D+00
167  1.6600000000000D+00  0.0000000000000D+00  0.0000000000000D+00
168  1.6700000000000D+00  0.0000000000000D+00  0.0000000000000D+00
169  1.6800000000000D+00  0.0000000000000D+00  0.0000000000000D+00
170  1.6900000000000D+00  0.0000000000000D+00  0.0000000000000D+00
171  1.7000000000000D+00  0.0000000000000D+00  0.0000000000000D+00
172  1.7100000000000D+00  0.0000000000000D+00  0.0000000000000D+00
173  1.7200000000000D+00  0.0000000000000D+00  0.0000000000000D+00
174  1.7300000000000D+00  0.0000000000000D+00  0.0000000000000D+00
175  1.7400000000000D+00  0.0000000000000D+00  0.0000000000000D+00
176  1.7500000000000D+00  0.0000000000000D+00  0.0000000000000D+00
177  1.7600000000000D+00  0.0000000000000D+00  0.0000000000000D+00
178  1.7700000000000D+00  0.0000000000000D+00  0.0000000000000D+00
179  1.7800000000000D+00  0.0000000000000D+00  0.0000000000000D+00
180  1.7900000000000D+00  0.0000000000000D+00  0.0000000000000D+00
181  1.8000000000000D+00  0.0000000000000D+00  0.0000000000000D+00
182  1.8100000000000D+00  0.0000000000000D+00  0.0000000000000D+00
183  1.8200000000000D+00  0.0000000000000D+00  0.0000000000000D+00
184  1.8300000000000D+00  0.0000000000000D+00  0.0000000000000D+00
185  1.8400000000000D+00  0.0000000000000D+00  0.0000000000000D+00
186  1.8500000000000D+00  0.0000000000000D+00  0.0000000000000D+00
187  1.8600000000000D+00  0.0000000000000D+00  0.0000000000000D+00
188  1.8700000000000D+00  0.0000000000000D+00  0.0000000000000D+00
189  1.8800000000000D+00  0.0000000000000D+00  0.0000000000000D+00
190  1.8900000000000D+00  0.0000000000000D+00  0.0000000000000D+00
191  1.9000000000000D+00  0.0000000000000D+00  0.0000000000000D+00
192  1.9100000000000D+00  0.0000000000000D+00  0.0000000000000D+00
193  1.9200000000000D+00  0.0000000000000D+00  0.0000000000000D+00
194  1.9300000000000D+00  0.0000000000000D+00  0.0000000000000D+00
195  1.9400000000000D+00  0.0000000000000D+00  0.0000000000000D+00
196  1.9500000000000D+00  0.0000000000000D+00  0.0000000000000D+00
197  1.9600000000000D+00  0.0000000000000D+00  0.0000000000000D+00
198  1.9700000000000D+00  0.0000000000000D+00  0.0000000000000D+00
199  1.9800000000000D+00  0.0000000000000D+00  0.0000000000000D+00
200  1.9900000000000D+00  0.0000000000000D+00  0.0000000000000D+00
201  2.0000000000000D+00  0.0000000000000D+00  0.0000000000000D+00
202  2.0100000000000D+00  0.0000000000000D+00  0.0000000000000D+00
203  2.0200000000000D+00  0.0000000000000D+00  0.0000000000000D+00
204  2.0300000000000D+00  0.0000000000000D+00  0.0000000000000D+00
205  2.0400000000000D+00  0.0000000000000D+00  0.0000000000000D+00
206  2.0500000000000D+00  0.0000000000000D+00  0.0000000000000D+00
207  2.0600000000000D+00  0.0000000000000D+00  0.0000000000000D+00
208  2.0700000000000D+00  0.0000000000000D+00  0.0000000000000D+00
209  2.0800000000000D+00  0.0000000000000D+00  0.0000000000000D+00
210  2.0900000000000D+00  0.0000000000000D+00  0.0000000000000D+00
211  2.1000000000000D+00  0.0000000000000D+00  0.0000000000000D+00
212  2.1100000000000D+00  0.0000000000000D+00  0.0000000000000D+00
213  2.1200000000000D+00  0.0000000000000D+00  0.0000000000000D+00
214  2.1300000000000D+00  0.0000000000000D+00  0.0000000000000D+00
215  2.1400000000000D+00  0.0000000000000D+00  0.0000000000000D+00
216  2.1500000000000D+00  0.0000000000000D+00  0.0000000000000D+00
217  2.1600000000000D+00  0.0000000000000D+00  0.0000000000000D+00
218  2.1700000000000D+00  0.0000000000000D+00  0.0000000000000D+00
219  2.1800000000000D+00  0.0000000000000D+00  0.0000000000000D+00
220  2.1900000000000D+00  0.0000000000000D+00  0.0000000000000D+00
221  2.2000000000000D+00  0.0000000000000D+00  0.0000000000000D+00
222  2.2100000000000D+00  0.0000000000000D+00  0.0000000000000D+00
223  2.2200000000000D+00  0.0000000000000D+00  0.0000000000000D+00
224  2.2300000000000D+00  0.0000000000000D+00  0.0000000000000D+00
225  2.2400000000000D+00  0.0000000000000D+00  0.0000000000000D+00
226  2.2500000000000D+00  0.0000000000000D+00  0.0000000000000D+00
227  2.2600000000000D+00  0.0000000000000D+00  0.0000000000000D+00
228  2.2700000000000D+00  0.0000000000000D+00  0.0000000000000D+00
229  2.2800000000000D+00  0.0000000000000D+00  0.0000000000000D+00
230  2.2900000000000D+00  0.0000000000000D+00  0.0000000000000D+00
231  2.3000000000000D+00  0.0000000000000D+00  0.0000000000000D+00
232  2.3100000000000D+00  0.0000000000000D+00  0.0000000000000D+00
233  2.3200000000000D+00  0.0000000000000D+00  0.0000000000000D+00
234  2.3300000000000D+00  0.0000000000000D+00  0.0000000000000D+00
235  2.3400000000000D+00  0.0000000000000D+00  0.0000000000000D+00
236  2.3500000000000D+00  0.0000000000000D+00  0.0000000000000D+00
237  2.3600000000000D+00  0.0000000000000D+00  0.0000000000000D+00
238  2.3700000000000D+00  0.0000000000000D+00  0.0000000000000D+00
239  2.3800000000000D+00  0.0000000000000D+00  0.0000000000000D+00
240  2.3900000000000D+00  0.0000000000000D+00  0.0000000000000D+00
241  2.4000000000000D+00  0.0000000000000D+00  0.0000000000000D+00
242  2.4100000000000D+00  0.0000000000000D+00  0.0000000000000D+00
243  2.4200000000000D+00  0.0000000000000D+00  0.0000000000000D+00
244  2.4300000000000D+00  0.0000000000000D+00  0.0000000000000D+00
245  2.4400000000000D+00  0.0000000000000D+00  0.0000000000000D+00
246  2.4500000000000D+00  0.0000000000000D+00  0.0000000000000D+00
247  2.4600000000000D+00  0.0000000000000D+00  0.0000000000000D+00
248  2.4700000000000D+00  0.0000000000000D+00  0.0000000000000D+00
249  2.4800000000000D+00  0.0000000000000D+00  0.0000000000000D+00
250  2.4900000000000D+00  0.0000000000000D+00  0.0000000000000D+00
251  2.5000000000000D+00  0.0000000000000D+00  0.0000000000000D+00
252  2.5100000000000D+00  0.0000000000000D+00  0.0000000000000D+00
253  2.5200000000000D+00  0.0000000000000D+00  0.0000000000000D+00
254  2.5300000000000D+00  0.0000000000000D+00  0.0000000000000D+00
255  2.5400000000000D+00  0.0000000000000D+00  0.0000000000000D+00
256  2.5500000000000D+00  0.0000000000000D+00  0.0000000000000D+00
257  2.5600000000000D+00  0.0000000000000D+00  0.0000000000000D+00
258  2.5700000000000D+00  0.0000000000000D+00  0.0000000000000D+00
259  2.5800000000000D+00  0.0000000000000D+00  0.0000000000000D+00
260  2.5900000000000D+00  0.0000000000000D+00  0.0000000000000D+00
261  2.6000000000000D+00  0.0000000000000D+00  0.0000000000000D+00
262  2.6100000000000D+00  0.0000000000000D+00  0.0000000000000D+00
263  2.6200000000000D+00  0.0000000000000D+00  0.0000000000000D+00
264  2.6300000000000D+00  0.0000000000000D+00  0.0000000000000D+00
265  2.6400000000000D+00  0.0000000000000D+00  0.0000000000000D+00
266  2.6500000000000D+00  0.0000000000000D+00  0.0000000000000D+00
267  2.6600000000000D+00  0.0000000000000D+00  0.0000000000000D+00
268  2.6700000000000D+00  0.0000000000000D+00  0.0000000000000D+00
269  2.6800000000000D+00  0.0000000000000D+00  0.0000000000000D+00
270  2.6900000000000D+00  0.0000000000000D+00  0.0000000000000D+00
271  2.7000000000000D+00  0.0000000000000D+00  0.0000000000000D+00
272  2.7100000000000D+00  0.0000000000000D+00  0.0000000000000D+00
273  2.7200000000000D+00  0.0000000000000D+00  0.0000000000000D+00
274  2.7300000000000D+00  0.0000000000000D+00  0.0000000000000D+00
275  2.7400000000000D+00  0.0000000000000D+00  0.0000000000000D+00
276  2.7500000000000D+00  0.0000000000000D+00  0.0000000000000D+00
277  2.7600000000000D+00  0.0000000000000D+00  0.0000000000000D+00
278  2.7700000000000D+00  0.0000000000000D+00  0.0000000000000D+00
279  2.7800000000000D+00  0.0000000000000D+00  0.0000000000000D+00
280  2.7900000000000D+00  0.0000000000000D+00  0.0000000000000D+00
281  2.8000000000000D+00  0.0000000000000D+00  0.0000000000000D+00
282  2.8100000000000D+00  0.0000000000000D+00  0.0000000000000D+00
283  2.8200000000000D+00  0.0000000000000D+00  0.0000000000000D+00
284  2.8300000000000D+00  0.0000000000000D+00  0.0000000000000D+00
285  2.8400000000000D+00  0.0000000000000D+00  0.0000000000000D+00
286  2.8500000000000D+00  0.0000000000000D+00  0.0000000000000D+00
287  2.8600000000000D+00  0.0000000000000D+00  0.0000000000000D+00
288  2.8700000000000D+00  0.0000000000000D+00  0.0000000000000D+00
289  2.8800000000000D+00  0.0000000000000D+00  0.0000000000000D+00
290  2.8900000000000D+00  0.0000000000000D+00  0.0000000000000D+00
291  2.9000000000000D+00  0.0000000000000D+00  0.0000000000000D+00
292  2.9100000000000D+00  0.0000000000000D+00  0.0000000000000D+00
293  2.9200000000000D+00  0.0000000000000D+00  0.0000000000000D+00
294  2.9300000000000D+00  0.0000000000000D+00  0.0000000000000D+00
295  2.9400000000000D+00  0.0000000000000D+00  0.0000000000000D+00
296  2.9500000000000D+00  0.0000000000000D+00  0.0000000000000D+00
297  2.9600000000000D+00  0.0000000000000D+00  0.0000000000000D+00
298  2.9700000000000D+00  0.0000000000000D+00  0.0000000000000D+00
299  2.9800000000000D+00  0.0000000000000D+00  0.0000000000000D+00
300  2.9900000000000D+00  0.0000000000000D+00  0.0000000000000D+00
301  3.0000000000000D+00  0.0000000000000D+00  0.0000000000000D+00
302  3.0100000000000D+00  0.0000000000000D+00  0.0000000000000D+00
303  3.0200000000000D+00  0.0000000000000D+00  0.0000000000000D+00
304  3.0300000000000D+00  0.0000000000000D+00  0.0000000000000D+00
305  3.0400000000000D+00  0.0000000000000D+00  0.0000000000000D+00
306  3.0500000000000D+00  0.0000000000000D+00  0.0000000000000D+00
307  3.0600000000000D+00  0.0000000000000D+00  0.0000000000000D+00
308  3.0700000000000D+00  0.0000000000000D+00  0.0000000000000D+00
309  3.0800000000000D+00  0.0000000000000D+00  0.0000000000000D+00
310  3.0900000000000D+00  0.0000000000000D+00  0.0000000000000D+00
311  3.1000000000000D+00  0.0000000000000D+00  0.0000000000000D+00
312  3.1100000000000D+00  0.0000000000000D+00  0.0000000000000D+00
313  3.1200000000000D+00  0.0000000000000D+00  0.0000000000000D+00
314  3.1300000000000D+00  0.0000000000000D+00  0.0000000000000D+00
315  3.1400000000000D+00  0.0000000000000D+00  0.0000000000000D+00
316  3.1500000000000D+00  0.0000000000000D+00  0.0000000000000D+00
317  3.1600000000000D+00  0.0000000000000D+00  0.0000000000000D+00
318  3.1700000000000D+00  0.0000000000000D+00  0.0000000000000D+00
319  3.1800000000000D+00  0.0000000000000D+00  0.0000000000000D+00
320  3.1900000000000D+00  0.0000000000000D+00  0.0000000000000D+00
321  3.2000000000000D+00  0.0000000000000D+00  0.0000000000000D+00
322  3.2100000000000D+00  0.0000000000000D+00  0.0000000000000D+00
323  3.2200000000000D+00  0.0000000000000D+00  0.0000000000000D+00
324  3.2300000000000D+00  0.0000000000000D+00  0.0000000000000D+00
325  3.2400000000000D+00  0.0000000000000D+00  0.0000000000000D+00
326  3.2500000000000D+00  0.0000000000000D+00  0.0000000000000D+00
327  3.2600000000000D+00  0.0000000000000D+00  0.0000000000000D+00
328  3.2700000000000D+00  0.0000000000000D+00  0.0000000000000D+00
329  3.2800000000000D+00  0.0000000000000D+00  0.0000000000000D+00
330  3.2900000000000D+00  0.0000000000000D+00  0.0000000000000D+00
331  3.3000000000000D+00  0.0000000000000D+00  0.0000000000000D+00
332  3.3100000000000D+00  0.0000000000000D+00  0.0000000000000D+00
333  3.3200000000000D+00  0.0000000000000D+00  0.0000000000000D+00
334  3.3300000000000D+00  0.0000000000000D+00  0.0000000000000D+00
335  3.3400000000000D+00  0.0000000000000D+00  0.0000000000000D+00
336  3.3500000000000D+00  0.0000000000000D+00  0.0000000000000D+00
337  3.3600000000000D+00  0.0000000000000D+00  0.0000000000000D+00
338  3.3700000000000D+00  0.0000000000000D+00  0.0000000000000D+00
339  3.3800000000000D+00  0.0000000000000D+00  0.0000000000000D+00
340  3.3900000000000D+00  0.0000000000000D+00  0.0000000000000D+00
341  3.4000000000000D+00  0.0000000000000D+00  0.0000000000000D+00
342  3.4100000000000D+00  0.0000000000000D+00  0.0000000000000D+00
343  3.4200000000000D+00  0.0000000000000D+00  0.0000000000000D+00
344  3.4300000000000D+00  0.0000000000000D+00  0.0000000000000D+00
345  3.4400000000000D+00  0.0000000000000D+00  0.0000000000000D+00
346  3.4500000000000D+00  0.0000000000000D+00  0.0000000000000D+00
347  3.4600000000000D+00  0.0000000000000D+00  0.0000000000000D+00
348  3.4700000000000D+00  0.0000000000000D+00  0.0000000000000D+00
349  3.4800000000000D+00  0.0000000000000D+00  0.0000000000000D+00
350  3.4900000000000D+00  0.0000000000000D+00  0.0000000000000D+00
351  3.5000000000000D+00  0.0000000000000D+00  0.0000000000000D+00
352  3.5100000000000D+00  0.0000000000000D+00  0.0000000000000D+00
353  3.5200000000000D+00  0.0000000000000D+00  0.0000000000000D+00
354  3.5300000000000D+00  0.0000000000000D+00  0.0000000000000D+00
355  3.5400000000000D+00  0.0000000000000D+00  0.0000000000000D+00
356  3.5500000000000D+00  0.0000000000000D+00  0.0000000000000D+00
357  3.5600000000000D+00  0.0000000000000D+00  0.0000000000000D+00
358  3.5700000000000D+00  0.0000000000000D+00  0.0000000000000D+00
359  3.5800000000000D+00  0.0000000000000D+00  0.0000000000000D+00
360  3.5900000000000D+00  0.0000000000000D+00  0.0000000000000D+00
361  3.6000000000000D+00  0.0000000000000D+00  0.0000000000000D+00
362  3.6100000000000D+00  0.0000000000000D+00  0.0000000000000D+00
363  3.6200000000000D+00  0.0000000000000D+00  0.0000000000000D+00
364  3.6300000000000D+00  0.0000000000000D+00  0.0000000000000D+00
365  3.6400000000000D+00  0.0000000000000D+00  0.0000000000000D+00
366  3.6500000000000D+00  0.0000000000000D+00  0.0000000000000D+00
367  3.6600000000000D+00  0.0000000000000D+00  0.0000000000000D+00
368  3.6700000000000D+00  0.0000000000000D+00  0.0000000000000D+00
369  3.6800000000000D+00  0.0000000000000D+00  0.0000000000000D+00
370  3.6900000000000D+00  0.0000000000000D+00  0.0000000000000D+00
371  3.7000000000000D+00  0.0000000000000D+00  0.0000000000000D+00
372  3.7100000000000D+00  0.0000000000000D+00  0.0000000000000D+00
373  3.7200000000000D+00  0.0000000000000D+00  0.0000000000000D+00
374  3.7300000000000D+00  0.0000000000000D+00  0.0000000000000D+00
375  3.7400000000000D+00  0.0000000000000D+00  0.0000000000000D+00
376  3.7500000000000D+00  0.0000000000000D+00  0.0000000000000D+00
377  3.7600000000000D+00  0.0000000000000D+00  0.0000000000000D+00
378  3.7700000000000D+00  0.0000000000000D+00  0.0000000000000D+00
379  3.7800000000000D+00  0.0000000000000D+00  0.0000000000000D+00
380  3.7900000000000D+00  0.0000000000000D+00  0.0000000000000D+00
381  3.8000000000000D+00  0.0000000000000D+00  0.0000000000000D+00
382  3.8100000000000D+00  0.0000000000000D+00  0.0000000000000D+00
383  3.8200000000000D+00  0.0000000000000D+00  0.0000000000000D+00
384  3.8300000000000D+00  0.0000000000000D+00  0.0000000000000D+00
385  3.8400000000000D+00  0.0000000000000D+00  0.0000000000000D+00
386  3.8500000000000D+00  0.0000000000000D+00  0.0000000000000D+00
387  3.8600000000000D+00  0.0000000000000D+00  0.0000000000000D+00
388  3.8700000000000D+00  0.0000000000000D+00  0.0000000000000D+00
389  3.8800000000000D+00  0.0000000000000D+00  0.0000000000000D+00
390  3.8900000000000D+00  0.0000000000000D+00  0.0000000000000D+00
391  3.9000000000000D+00  0.0000000000000D+00  0.0000000000000D+00
392  3.9100000000000D+00  0.0000000000000D+00  0.0000000000000D+00
393  3.9200000000000D+00  0.0000000000000D+00  0.0000000000000D+00
394  3.9300000000000D+00  0.0000000000000D+00  0.0000000000000D+00
395  3.9400000000000D+00  0.0000000000000D+00  0.0000000000000D+00
396  3.9500000000000D+00  0.0000000000000D+00  0.0000000000000D+00
397  3.9600000000000D+00  0.0000000000000D+00  0.0000000000000D+00
398  3.9700000000000D+00  0.0000000000000D+00  0.0000000000000D+00
399  3.9800000000000D+00  0.0000000000000D+00  0.0000000000000D+00
400  3.9900000000000D+00  0.0000000000000D+00  0.0000000000000D+00
401  4.0000000000000D+00  0.0000000000000D+00  0.0000000000000D+00
402  4.0100000000000D+00  0.0000000000000D+00  0.0000000000000D+00
403  4.0200000000000D+00  0.0000000000000D+00  0.0000000000000D+00
404  4.0300000000000D+00  0.0000000000000D+00  0.0000000000000D+00
405  4.0400000000000D+00  0.0000000000000D+00  0.0000000000000D+00
406  4.0500000000000D+00  0.0000000000000D+00  0.0000000000000D+00
407  4.0600000000000D+00  0.0000000000000D+00  0.0000000000000D+00
408  4.0700000000000D+00  0.0000000000000D+00  0.0000000000000D+00
409  4.0800000000000D+00  0.0000000000000D+00  0.0000000000000D+00
410  4.0900000000000D+00  0.0000000000000D+00  0.0000000000000D+00
411  4.1000000000000D+00  0.0000000000000D+00  0.0000000000000D+00
412  4.1100000000000D+00  0.0000000000000D+00  0.0000000000000D+00
413  4.1200000000000D+00  0.0000000000000D+00  0.0000000000000D+00
414  4.1300000000000D+00  0.0000000000000D+00  0.0000000000000D+00
415  4.1400000000000D+00  0.0000000000000D+00  0.0000000000000D+00
416  4.1500000000000D+00  0.0000000000000D+00  0.0000000000000D+00
417  4.1600000000000D+00  0.0000000000000D+00  0.0000000000000D+00
418  4.1700000000000D+00  0.0000000000000D+00  0.0000000000000D+00
419  4.1800000000000D+00  0.0000000000000D+00  0.0000000000000D+00
420  4.1900000000000D+00  0.0000000000000D+00  0.0000000000000D+00
421  4.2000000000000D+00  0.0000000000000D+00  0.0000000000000D+00
422  4.2100000000000D+00  0.0000000000000D+00  0.0000000000000D+00
423  4.2200000000000D+00  0.0000000000000D+00  0.0000000000000D+00
424  4.2300000000000D+00  0.0000000000000D+00  0.0000000000000D+00
425  4.2400000000000D+00  0.0000000000000D+00  0.0000000000000D+00
426  4.2500000000000D+00  0.0000000000000D+00  0.0000000000000D+00
427  4.2600000000000D+00  0.0000000000000D+00  0.0000000000000D+00
428  4.2700000000000D+00  0.0000000000000D+00  0.0000000000000D+00
429  4.2800000000000D+00  0.0000000000000D+00  0.0000000000000D+00
430  4.2900000000000D+00  0.0000000000000D+00  0.0000000000000D+00
431  4.3000000000000D+00  0.0000000000000D+00  0.0000000000000D+00
432  4.3100000000000D+00  0.0000000000000D+00  0.0000000000000D+00
433  4.3200000000000D+00  0.0000000000000D+00  0.0000000000000D+00
434  4.3300000000000D+00  0.0000000000000D+00  0.0000000000000D+00
435  4.3400000000000D+00  0.0000000000000D+00  0.0000000000000D+00
436  4.3500000000000D+00  0.0000000000000D+00  0.0000000000000D+00
437  4.3600000000000D+00  0.0000000000000D+00  0.0000000000000D+00
438  4.3700000000000D+00  0.0000000000000D+00  0.0000000000000D+00
439  4.3800000000000D+00  0.0000000000000D+00  0.0000000000000D+00
440  4.3900000000000D+00  0.0000000000000D+00  0.0000000000000D+00
441  4.4000000000000D+00  0.0000000000000D+00  0.0000000000000D+00
442  4.4100000000000D+00  0.0000000000000D+00  0.0000000000000D+00
443  4.4200000000000D+00  0.0000000000000D+00  0.0000000000000D+00