<?xml version="1.0" encoding="UTF-8" ?>
<psml version="1.1" energy_unit="hartree" length_unit="bohr"
 uuid="edaa6890-471a-11e8-6356-ec79ff4cd4ef"
 xmlns="http://esl.cecam.org/PSML/ns/1.1">
<provenance creator="ONCVPSP-3.3.0+psml-3.3.0-73 (fully-relativistic)"
 date="2018-04-23">
<annotation action="semilocal-pseudopotential-generation"
 action-cont="projectors-generation" />
<input-file name="oncvpsp-input">
<![CDATA[# atsym z nc nv iexc psfile
Te 52 8 3 4 both
# n l f
1 0 2.0
2 0 2.0
2 1 6.0
3 0 2.0
3 1 6.0
3 2 10.0
4 0 2.0
4 1 6.0
4 2 10.0
5 0 2.0
5 1 4.0
# lmax
2
# l rc ep ncon nbas qcut
0 2.25 0.0 4 8 4.2
1 1.9 0.0 4 8 5.5
2 1.8 0.0 4 9 8.4
# lloc lpopt rc5 dvloc0
4 5 1.8 0.0
# l nproj debl
0 2 3.0
1 2 2.5
2 2 1.6
# icmod fcfact
3 5 1.43
# epsh1 epsh2 depsh
-12.0 12.0 0.02
# rlmax drl
6.0 0.01
 0
]]>
</input-file>
</provenance>
<pseudo-atom-spec atomic-label="Te" atomic-number="52" z-pseudo="16"
 flavor="Hamann&apos;s oncvpsp" relativity="dirac" spin-dft="no"
 core-corrections="yes">
<annotation pseudo-energy="-93.2082820409" />
<exchange-correlation>
<annotation oncvpsp-xc-code="4" oncvpsp-xc-type="GGA -- Perdew-Burke-Ernzerhof" />
<libxc-info number-of-functionals="2">
<functional name="Perdew, Burke &amp; Ernzerhof (GGA)" type="exchange" id="101" />
<functional name="Perdew, Burke &amp; Ernzerhof (GGA)" type="correlation"
 id="130" />
</libxc-info>
</exchange-correlation>
<valence-configuration total-valence-charge="16">
<shell n="4" l="d" occupation="10" />
<shell n="5" l="s" occupation="2" />
<shell n="5" l="p" occupation="4" />
</valence-configuration>
</pseudo-atom-spec>
<grid npts="457">
<annotation type="sampled from oncvpsp log grid"
 recipe="r(i:1..N) = r1*exp(a*(i-1)) + r=0; resampled"
 recipe-cont="r1: scale; a: step" scale="0.961538461538E-05"
 step="0.119285708653E-01" delta="0.500000000000E-02" rmax="44.1677972533" />
<grid-data>
  0.000000000000E+00  5.043542968859E-03  1.007408127726E-02  1.511272833334E-02
  2.012218676581E-02  2.524090447309E-02  3.054872670761E-02  3.567301166182E-02
  4.067479879938E-02  4.582796137488E-02  5.102172656014E-02  5.613054395614E-02
  6.175090843111E-02  6.712849932167E-02  7.297439884964E-02  7.838872507068E-02
  8.420476653556E-02  8.937977120117E-02  9.487281811536E-02  1.007034533227E-01
  1.068924241165E-01  1.121163565855E-01  1.175955875068E-01  1.233425935539E-01
  1.293704611469E-01  1.356929162517E-01  1.423243556345E-01  1.475097624955E-01
  1.528840930596E-01  1.584542305217E-01  1.642273088569E-01  1.702107219580E-01
  1.764121331045E-01  1.828394847779E-01  1.895010088340E-01  1.964052370456E-01
  2.035610120299E-01  2.109774985736E-01  2.160713392991E-01  2.212881657152E-01
  2.266309471882E-01  2.321027247771E-01  2.377066129641E-01  2.434458014276E-01
  2.493235568572E-01  2.553432248140E-01  2.615082316339E-01  2.678220863785E-01
  2.742883828320E-01  2.809108015471E-01  2.876931119396E-01  2.946391744343E-01
  3.017529426618E-01  3.090384657095E-01  3.164998904256E-01  3.241414637800E-01
  3.319675352815E-01  3.399825594533E-01  3.481910983688E-01  3.565978242478E-01
  3.652075221164E-01  3.740250925304E-01  3.830555543645E-01  3.923040476690E-01
  4.017758365960E-01  4.114763123947E-01  4.214109964812E-01  4.264679284390E-01
  4.315855435802E-01  4.367645701032E-01  4.420057449444E-01  4.473098138838E-01
  4.526775316504E-01  4.581096620302E-01  4.636069779745E-01  4.691702617102E-01
  4.748003048508E-01  4.804979085090E-01  4.862638834111E-01  4.920990500120E-01
  4.980042386121E-01  5.039802894755E-01  5.100280529492E-01  5.161483895846E-01
  5.223421702596E-01  5.286102763027E-01  5.349535996183E-01  5.413730428138E-01
  5.478695193275E-01  5.544439535595E-01  5.610972810022E-01  5.678304483742E-01
  5.746444137547E-01  5.815401467198E-01  5.885186284804E-01  5.955808520222E-01
  6.027278222464E-01  6.099605561134E-01  6.172800827867E-01  6.246874437802E-01
  6.321836931055E-01  6.397698974228E-01  6.474471361919E-01  6.552165018262E-01
  6.630790998481E-01  6.710360490463E-01  6.790884816348E-01  6.872375434144E-01
  6.954843939354E-01  7.038302066626E-01  7.122761691426E-01  7.208234831723E-01
  7.294733649704E-01  7.382270453500E-01  7.470857698942E-01  7.560507991330E-01
  7.651234087225E-01  7.743048896272E-01  7.835965483027E-01  7.929997068824E-01
  8.025157033650E-01  8.121458918053E-01  8.218916425070E-01  8.317543422171E-01
  8.417353943237E-01  8.518362190556E-01  8.620582536842E-01  8.724029527285E-01
  8.828717881612E-01  8.934662496191E-01  9.041878446146E-01  9.150380987499E-01
  9.260185559349E-01  9.371307786062E-01  9.483763479494E-01  9.597568641248E-01
  9.712739464943E-01  9.829292338523E-01  9.947243846585E-01  1.006661077274E+00
  1.018741010202E+00  1.030965902324E+00  1.043337493152E+00  1.055857543070E+00
  1.068527833587E+00  1.081350167590E+00  1.094326369601E+00  1.107458286036E+00
  1.120747785468E+00  1.134196758894E+00  1.147807120001E+00  1.161580805441E+00
  1.175519775106E+00  1.189626012407E+00  1.203901524556E+00  1.218348342851E+00
  1.232968522965E+00  1.247764145241E+00  1.262737314984E+00  1.277890162763E+00
  1.293224844717E+00  1.308743542853E+00  1.324448465367E+00  1.340341846952E+00
  1.356425949115E+00  1.372703060505E+00  1.389175497231E+00  1.405845603197E+00
  1.422715750436E+00  1.439788339441E+00  1.457065799514E+00  1.474550589108E+00
  1.492245196178E+00  1.510152138532E+00  1.528273964194E+00  1.546613251765E+00
  1.565172610786E+00  1.583954682115E+00  1.602962138301E+00  1.622197683960E+00
  1.641664056168E+00  1.661364024842E+00  1.681300393140E+00  1.701475997858E+00
  1.721893709832E+00  1.742556434350E+00  1.763467111562E+00  1.784628716901E+00
  1.806044261504E+00  1.827716792642E+00  1.849649394153E+00  1.871845186883E+00
  1.894307329126E+00  1.917039017075E+00  1.940043485280E+00  1.963324007103E+00
  1.986883895189E+00  2.010726501931E+00  2.034855219954E+00  2.059273482594E+00
  2.083984764385E+00  2.108992581557E+00  2.134300492536E+00  2.159912098446E+00
  2.185831043628E+00  2.212061016151E+00  2.238605748345E+00  2.265469017325E+00
  2.292654645533E+00  2.320166501280E+00  2.348008499295E+00  2.376184601287E+00
  2.404698816502E+00  2.433555202300E+00  2.462757864728E+00  2.492310959104E+00
  2.522218690614E+00  2.552485314901E+00  2.583115138680E+00  2.614112520344E+00
  2.645481870588E+00  2.677227653035E+00  2.709354384872E+00  2.741866637490E+00
  2.774769037140E+00  2.808066265586E+00  2.841763060773E+00  2.875864217502E+00
  2.910374588112E+00  2.945299083169E+00  2.980642672167E+00  3.016410384233E+00
  3.052607308844E+00  3.089238596550E+00  3.126309459709E+00  3.163825173225E+00
  3.201791075304E+00  3.240212568208E+00  3.279095119026E+00  3.318444260454E+00
  3.358265591580E+00  3.398564778679E+00  3.439347556023E+00  3.480619726695E+00
  3.522387163416E+00  3.564655809377E+00  3.607431679089E+00  3.650720859238E+00
  3.694529509549E+00  3.738863863664E+00  3.783730230028E+00  3.829134992788E+00
  3.875084612701E+00  3.921585628054E+00  3.968644655590E+00  4.016268391458E+00
  4.064463612155E+00  4.113237175501E+00  4.162596021607E+00  4.212547173866E+00
  4.263097739953E+00  4.314254912832E+00  4.366025971786E+00  4.418418283447E+00
  4.471439302849E+00  4.525096574483E+00  4.579397733377E+00  4.634350506177E+00
  4.689962712251E+00  4.746242264798E+00  4.803197171976E+00  4.860835538040E+00
  4.919165564496E+00  4.978195551270E+00  5.037933897885E+00  5.098389104660E+00
  5.159569773916E+00  5.221484611203E+00  5.284142426537E+00  5.347552135656E+00
  5.411722761284E+00  5.476663434419E+00  5.542383395632E+00  5.608891996380E+00
  5.676198700336E+00  5.744313084740E+00  5.813244841757E+00  5.883003779858E+00
  5.953599825217E+00  6.025043023119E+00  6.097343539397E+00  6.170511661869E+00
  6.244557801812E+00  6.319492495433E+00  6.395326405379E+00  6.472070322243E+00
  6.549735166110E+00  6.628331988103E+00  6.707871971961E+00  6.788366435624E+00
  6.869826832852E+00  6.952264754846E+00  7.035691931904E+00  7.120120235087E+00
  7.205561677908E+00  7.292028418043E+00  7.379532759059E+00  7.468087152168E+00
  7.557704197994E+00  7.648396648370E+00  7.740177408151E+00  7.833059537048E+00
  7.927056251493E+00  8.022180926511E+00  8.118447097629E+00  8.215868462801E+00
  8.314458884354E+00  8.414232390966E+00  8.515203179658E+00  8.617385617814E+00
  8.720794245228E+00  8.825443776170E+00  8.931349101484E+00  9.038525290702E+00
  9.146987594191E+00  9.256751445321E+00  9.367832462665E+00  9.480246452217E+00
  9.594009409643E+00  9.709137522559E+00  9.825647172830E+00  9.943554938904E+00
  1.006287759817E+01  1.018363212935E+01  1.030583571490E+01  1.042950574348E+01
  1.055465981240E+01  1.068131573015E+01  1.080949151891E+01  1.093920541714E+01
  1.107047588214E+01  1.120332159273E+01  1.133776145184E+01  1.147381458927E+01
  1.161150036434E+01  1.175083836871E+01  1.189184842913E+01  1.203455061028E+01
  1.217896521761E+01  1.232511280022E+01  1.247301415382E+01  1.262269032367E+01
  1.277416260755E+01  1.292745255884E+01  1.308258198955E+01  1.323957297342E+01
  1.339844784910E+01  1.355922922329E+01  1.372193997397E+01  1.388660325366E+01
  1.405324249270E+01  1.422188140261E+01  1.439254397945E+01  1.456525450720E+01
  1.474003756129E+01  1.491691801202E+01  1.509592102817E+01  1.527707208050E+01
  1.546039694547E+01  1.564592170882E+01  1.583367276932E+01  1.602367684255E+01
  1.621596096466E+01  1.641055249624E+01  1.660747912619E+01  1.680676887571E+01
  1.700845010222E+01  1.721255150344E+01  1.741910212148E+01  1.762813134694E+01
  1.783966892311E+01  1.805374495018E+01  1.827038988959E+01  1.848963456826E+01
  1.871151018308E+01  1.893604830528E+01  1.916328088494E+01  1.939324025556E+01
  1.962595913863E+01  1.986147064829E+01  2.009980829607E+01  2.034100599562E+01
  2.058509806757E+01  2.083211924438E+01  2.108210467531E+01  2.133508993142E+01
  2.159111101059E+01  2.185020434272E+01  2.211240679483E+01  2.237775567637E+01
  2.264628874449E+01  2.291804420942E+01  2.319306073993E+01  2.347137746881E+01
  2.375303399844E+01  2.403807040642E+01  2.432652725130E+01  2.461844557831E+01
  2.491386692525E+01  2.521283332836E+01  2.551538732830E+01  2.582157197624E+01
  2.613143083995E+01  2.644500801003E+01  2.676234810615E+01  2.708349628342E+01
  2.740849823883E+01  2.773740021769E+01  2.807024902030E+01  2.840709200855E+01
  2.874797711265E+01  2.909295283800E+01  2.944206827206E+01  2.979537309132E+01
  3.015291756842E+01  3.051475257924E+01  3.088092961019E+01  3.125150076551E+01
  3.162651877470E+01  3.200603700000E+01  3.239010944400E+01  3.277879075732E+01
  3.317213624641E+01  3.357020188137E+01  3.397304430394E+01  3.438072083559E+01
  3.479328948562E+01  3.521080895945E+01  3.563333866696E+01  3.606093873096E+01
  3.649366999573E+01  3.693159403568E+01  3.737477316411E+01  3.782327044208E+01
  3.827714968739E+01  3.873647548363E+01  3.920131318944E+01  3.967172894771E+01
  4.014778969508E+01  4.062956317142E+01  4.111711792948E+01  4.161052334464E+01
  4.210984962477E+01  4.261516782027E+01  4.312654983411E+01  4.364406843212E+01
  4.416779725331E+01
</grid-data>
</grid>
<valence-charge total-charge="16" is-unscreening-charge="yes"
 rescaled-to-z-pseudo="no">
<radfunc>
<data npts="457">
  1.147397545413E-03  1.151030645986E-03  1.165726794672E-03  1.203036439103E-03
  1.281475286174E-03  1.431613012079E-03  1.700274466161E-03  2.114200972014E-03
  2.714955821677E-03  3.596192010371E-03  4.822271669666E-03  6.434157582952E-03
  8.769472512649E-03  1.165975912156E-02  1.566027811383E-02  2.029190114232E-02
  2.641013929802E-02  3.298217631764E-02  4.126452665881E-02  5.169739856076E-02
  6.483157506592E-02  7.774071880126E-02  9.324427522398E-02  1.118526417818E-01
  1.341726662275E-01  1.609245412446E-01  1.929612136624E-01  2.210566356088E-01
  2.531783405444E-01  2.898801280309E-01  3.317863609675E-01  3.795996160202E-01
  4.341088343303E-01  4.961979151758E-01  5.668546625948E-01  6.471799539634E-01
  7.383969487566E-01  8.418600936822E-01  9.183708370450E-01  1.001464209740E+00
  1.091649023967E+00  1.189464759794E+00  1.295482053487E+00  1.410302937616E+00
  1.534560780381E+00  1.668919865126E+00  1.814074544202E+00  1.970747894174E+00
  2.139689792110E+00  2.321674325235E+00  2.517496439016E+00  2.727967721715E+00
  2.953911217128E+00  3.196155151696E+00  3.455525458035E+00  3.732836974542E+00
  4.028883200616E+00  4.344424489934E+00  4.680174570754E+00  5.036785293224E+00
  5.414829520091E+00  5.814782099953E+00  6.236998892312E+00  6.681693852303E+00
  7.148914231089E+00  7.638514006642E+00  8.150125729861E+00  8.414003466376E+00
  8.683131053515E+00  8.957387001865E+00  9.236630306808E+00  9.520699479846E+00
  9.809411586608E+00  1.010256129744E+01  1.039991995707E+01  1.070123468030E+01
  1.100622748150E+01  1.131459444596E+01  1.162600495195E+01  1.194010095296E+01
  1.225649632995E+01  1.257477632427E+01  1.289449706228E+01  1.321518518323E+01
  1.353633758247E+01  1.385742128253E+01  1.417787344472E+01  1.449710153447E+01
  1.481448365361E+01  1.512936905292E+01  1.544107883826E+01  1.574890688335E+01
  1.605212096203E+01  1.634996411220E+01  1.664165624310E+01  1.692639599657E+01
  1.720336287197E+01  1.747171962294E+01  1.773061493280E+01  1.797918637332E+01
  1.821656364976E+01  1.844187213244E+01  1.865423667260E+01  1.885278569729E+01
  1.903665557497E+01  1.920499523963E+01  1.935697105800E+01  1.949177192001E+01
  1.960861452870E+01  1.970674886134E+01  1.978546376903E+01  1.984409267741E+01
  1.988201934674E+01  1.989868364460E+01  1.989358728071E+01  1.986629944833E+01
  1.981646231363E+01  1.974379629030E+01  1.964810503384E+01  1.952928008800E+01
  1.938730511341E+01  1.922225962861E+01  1.903432219311E+01  1.882377296380E+01
  1.859099555834E+01  1.833647816280E+01  1.806081382596E+01  1.776469988880E+01
  1.744893650566E+01  1.711442422266E+01  1.676216058914E+01  1.639323579015E+01
  1.600882730007E+01  1.561019357224E+01  1.519866679308E+01  1.477564474529E+01
  1.434258183957E+01  1.390097938996E+01  1.345237522296E+01  1.299833272503E+01
  1.254042944607E+01  1.208024538870E+01  1.161935112253E+01  1.115929587113E+01
  1.070159572402E+01  1.024772212897E+01  9.799090819311E+00  9.357051327648E+00
  8.922877230317E+00  8.497757257672E+00  8.082787392149E+00  7.678964060738E+00
  7.287178510449E+00  6.908212435343E+00  6.542734902045E+00  6.191300597935E+00
  5.854349403010E+00  5.532207263240E+00  5.225088320809E+00  4.933098235412E+00
  4.656238611396E+00  4.394412428411E+00  4.147430358847E+00  3.915017843922E+00
  3.696822792201E+00  3.492423759609E+00  3.301338468674E+00  3.123032526851E+00
  2.956928208963E+00  2.802413176942E+00  2.658849020688E+00  2.525579516535E+00
  2.401938514004E+00  2.287257376529E+00  2.180871917066E+00  2.082128784120E+00
  1.990391267082E+00  1.905044501160E+00  1.825500061063E+00  1.751199938525E+00
  1.681619901703E+00  1.616272234581E+00  1.554707852437E+00  1.496517786136E+00
  1.441334024955E+00  1.388829706338E+00  1.338718643223E+00  1.290754186829E+00
  1.244727435946E+00  1.200463738840E+00  1.157814657443E+00  1.116648934860E+00
  1.076851336107E+00  1.038323931211E+00  1.000984744341E+00  9.647650195276E-01
  9.296050950628E-01  8.954529682601E-01  8.622640539769E-01  8.300000275865E-01
  7.986280086886E-01  7.681197126607E-01  7.384506425788E-01  7.095993308704E-01
  6.815466439649E-01  6.542751619197E-01  6.277686431395E-01  6.020115820638E-01
  5.769889736468E-01  5.526866115149E-01  5.290916592600E-01  5.061925518070E-01
  4.839786293587E-01  4.624400059344E-01  4.415673787270E-01  4.213518685505E-01
  4.017848771989E-01  3.828579620257E-01  3.645627268864E-01  3.468907285397E-01
  3.298333975030E-01  3.133819725345E-01  2.975274476431E-01  2.822605307174E-01
  2.675716128022E-01  2.534507470690E-01  2.398876365540E-01  2.268716297578E-01
  2.143917232354E-01  2.024365703392E-01  1.909944953173E-01  1.800535120100E-01
  1.696013464349E-01  1.596254625940E-01  1.501130908847E-01  1.410512585462E-01
  1.324268216157E-01  1.242264979244E-01  1.164369006964E-01  1.090445723700E-01
  1.020360183059E-01  9.539774005998E-02  8.911626797806E-02  8.317819287156E-02
  7.757019657940E-02  7.227908124833E-02  6.729179719018E-02  6.259546919878E-02
  5.817742123042E-02  5.402519937129E-02  5.012659303227E-02  4.646965432741E-02
  4.304271560649E-02  3.983440512562E-02  3.683366085191E-02  3.402974241049E-02
  3.141224119309E-02  2.897108865862E-02  2.669656286648E-02  2.457929329361E-02
  2.261026399575E-02  2.078081518239E-02  1.908264328310E-02  1.750779959035E-02
  1.604868757035E-02  1.469805893865E-02  1.344900860136E-02  1.229496856615E-02
  1.122970092826E-02  1.024729003793E-02  9.342133954473E-03  8.508935290840E-03
  7.742691549353E-03  7.038685046033E-03  6.392472516163E-03  5.799874488791E-03
  5.256964512170E-03  4.760058306114E-03  4.305702910909E-03  3.890665895897E-03
  3.511924684311E-03  3.166656044356E-03  2.852225790102E-03  2.566178729495E-03
  2.306228890766E-03  2.070250052800E-03  1.856266599668E-03  1.662444714505E-03
  1.487083923368E-03  1.328608995520E-03  1.185562202932E-03  1.056595938469E-03
  9.404656894811E-04  8.360233611049E-04  7.422109416252E-04  6.580545007023E-04
  5.826585100511E-04  5.152004752981E-04  4.549258671644E-04  4.011433398004E-04
  3.532202239907E-04  3.105782830135E-04  2.726897191438E-04  2.390734190971E-04
  2.092914270905E-04  1.829456346204E-04  1.596746765075E-04  1.391510232068E-04
  1.210782598275E-04  1.051885427261E-04  9.124022493555E-05  7.901564205935E-05
  6.831905059649E-05  5.897471096882E-05  5.082510780299E-05  4.372930027363E-05
  3.756139554964E-05  3.220913860451E-05  2.757261185828E-05  2.356303831775E-05
  2.010168207510E-05  1.711884021738E-05  1.455292039130E-05  1.234959846281E-05
  1.046105090848E-05  8.845256777911E-06  7.465364272955E-06  6.289117199873E-06
  5.288336764898E-06  4.438454400840E-06  3.718091531462E-06  3.108682400335E-06
  2.594136310535E-06  2.160535839731E-06  1.795867810663E-06  1.489784008656E-06
  1.233388844571E-06  1.019051362486E-06  8.402391856154E-07  6.913721807199E-07
  5.676938000252E-07  4.651582298781E-07  3.803316367531E-07  3.103059535006E-07
  2.526237918046E-07  2.052132006577E-07  1.663311153474E-07  1.345144571242E-07
  1.085379506214E-07  8.737782449223E-08  7.018065095799E-08  5.623666238986E-08
  4.495695807107E-08  3.585408232983E-08  2.852551672247E-08  2.263968432041E-08
  1.792411384857E-08  1.415545586819E-08  1.115108281311E-08  8.762039882936E-09
  6.867144958794E-09  5.368063208675E-09  4.185206241253E-09  3.254326877803E-09
  2.523699149355E-09  1.951789275023E-09  1.505337400155E-09  1.157782010598E-09
  8.879694115712E-10  6.790996662508E-10  5.178681102455E-10  3.937681562390E-10
  2.985267232382E-10  2.256483967646E-10  1.700484648838E-10  1.277583818427E-10
  9.569007573276E-11  7.144791748523E-11  5.317917408347E-11  3.945543874483E-11
  2.917891654216E-11  2.150859003374E-11  1.580223419558E-11  1.157102605340E-11
  8.444129817913E-12  6.141156757672E-12  4.450820570228E-12  3.214450552835E-12
  2.313300632247E-12  1.658814169786E-12  1.185182309582E-12  8.436756980129E-13
  5.983424600217E-13  4.227549628493E-13  2.975587141232E-13  2.086324737384E-13
  1.457123540889E-13  1.013668096288E-13  7.023596670218E-14  4.846931937280E-14
  3.331169830216E-14  2.279962927558E-14  1.553954675876E-14  1.054645696297E-14
  7.127058889431E-15  4.795426175190E-15  3.212435868639E-15  2.142442282175E-15
  1.422420260889E-15  9.400853861720E-16  6.184482885102E-16  4.049599262397E-16
  2.639178876348E-16  1.711784022171E-16  1.104911289564E-16  7.097064911786E-17
  4.536045112818E-17  2.884676851581E-17  1.825205397322E-17  1.148932460577E-17
  7.194798152006E-18  4.481844705217E-18  2.777035126014E-18  1.711450135088E-18
  1.049003559299E-18  6.394264371606E-19  3.875927937856E-19  2.336157982750E-19
  1.348909581772E-19  8.046630933320E-20  4.771783402280E-20  0.000000000000E+00
  0.000000000000E+00  0.000000000000E+00  0.000000000000E+00  0.000000000000E+00
  0.000000000000E+00  0.000000000000E+00  0.000000000000E+00  0.000000000000E+00
  0.000000000000E+00  0.000000000000E+00  0.000000000000E+00  0.000000000000E+00
  0.000000000000E+00  0.000000000000E+00  0.000000000000E+00  0.000000000000E+00
  0.000000000000E+00  0.000000000000E+00  0.000000000000E+00  0.000000000000E+00
  0.000000000000E+00  0.000000000000E+00  0.000000000000E+00  0.000000000000E+00
  0.000000000000E+00
</data>
</radfunc>
</valence-charge>
<pseudocore-charge matching-radius="0.812145891805"
 number-of-continuous-derivatives="4">
<annotation model-charge-form="Teter function with specified parameters" />
<radfunc>
<data npts="290">
  9.729550620490E+01  9.728970889493E+01  9.727237864858E+01  9.724346538270E+01
  9.720326506108E+01  9.715040414935E+01  9.708303066484E+01  9.700587811757E+01
  9.691912309765E+01  9.681794597788E+01  9.670389290854E+01  9.657991404103E+01
  9.643006316642E+01  9.627354146310E+01  9.608887796727E+01  9.590443333370E+01
  9.569201564783E+01  9.549064200854E+01  9.526423139492E+01  9.500973865617E+01
  9.472376647774E+01  9.446979383742E+01  9.419112743879E+01  9.388544726478E+01
  9.355023231838E+01  9.318274683694E+01  9.278002637848E+01  9.245294340664E+01
  9.210279530383E+01  9.172805122517E+01  9.132709342870E+01  9.089821467973E+01
  9.043961599633E+01  8.994940482980E+01  8.942559378881E+01  8.886610003146E+01
  8.826874546783E+01  8.763125793440E+01  8.718280646349E+01  8.671474695079E+01
  8.622634027159E+01  8.571683134077E+01  8.518545009040E+01  8.463141263348E+01
  8.405392263156E+01  8.345217288499E+01  8.282534716552E+01  8.217262231193E+01
  8.149317061025E+01  8.078616248110E+01  8.005076949704E+01  7.928616775381E+01
  7.849154161936E+01  7.766608788484E+01  7.680902034151E+01  7.591957480726E+01
  7.499701462516E+01  7.404063665546E+01  7.304977778039E+01  7.202382193857E+01
  7.096220770271E+01  6.986443640997E+01  6.873008084970E+01  6.755879450690E+01
  6.635032135275E+01  6.510450616520E+01  6.382130535262E+01  6.316570500777E+01
  6.250079824230E+01  6.182661609834E+01  6.114319878293E+01  6.045059605159E+01
  5.974886759535E+01  5.903808343045E+01  5.831832428984E+01  5.758968201543E+01
  5.685225995017E+01  5.610617332861E+01  5.535154966491E+01  5.458852913692E+01
  5.381726496476E+01  5.303792378262E+01  5.225068600195E+01  5.145574616444E+01
  5.065331328289E+01  4.984361116807E+01  4.902687873954E+01  4.820337031825E+01
  4.737335589864E+01  4.653712139802E+01  4.569496888058E+01  4.484721675364E+01
  4.399419993342E+01  4.313626997753E+01  4.227379518156E+01  4.140716063656E+01
  4.053676824482E+01  3.966303669061E+01  3.878640136300E+01  3.790731422759E+01
  3.702624364415E+01  3.614367412684E+01  3.526010604423E+01  3.437605525578E+01
  3.349205268202E+01  3.260864380537E+01  3.172638809896E+01  3.084585838069E+01
  2.996764009019E+01  2.909233048627E+01  2.822053776304E+01  2.735288008275E+01
  2.648998452415E+01  2.563248594508E+01  2.478102575884E+01  2.393625062400E+01
  2.309881104787E+01  2.226935990461E+01  2.144855086908E+01  2.063703676869E+01
  1.983546785571E+01  1.904449000341E+01  1.826474283025E+01  1.749685775691E+01
  1.674145600179E+01  1.599914652174E+01  1.527052390525E+01  1.455616622654E+01
  1.385663286973E+01  1.317246233329E+01  1.250417002582E+01  1.185224606516E+01
  1.121715309359E+01  1.059932412300E+01  9.999160424318E+00  9.417029476633E+00
  8.853262991735E+00  8.308155030679E+00  7.781960229226E+00  7.274892149464E+00
  6.787121775072E+00  6.318776167748E+00  5.869937302184E+00  5.440641096630E+00
  5.030876655612E+00  4.640585740544E+00  4.269662483078E+00  3.917953354722E+00
  3.585257404859E+00  3.271326777499E+00  2.975867515147E+00  2.698540655876E+00
  2.438963627253E+00  2.196711937898E+00  1.971321164676E+00  1.762289230152E+00
  1.569078961738E+00  1.391120920401E+00  1.227816483271E+00  1.078541160801E+00
  9.426481255447E-01  8.194719260213E-01  7.083323556844E-01  6.085384437724E-01
  5.193925318074E-01  4.401943968639E-01  3.702453804858E-01  3.088524803764E-01
  2.553323607964E-01  2.090152370398E-01  1.692485894844E-01  1.354006635786E-01
  1.068637137754E-01  8.305695187761E-02  6.342916353092E-02  4.746096068343E-02
  3.466664269112E-02  2.459564434173E-02  1.683355531839E-02  1.100270243442E-02
  6.762293222058E-03  3.808127008233E-03  1.871887299803E-03  7.200369483578E-04
  1.523449798068E-04  8.095480404380E-08  1.239190690776E-04  4.115997073902E-04
  7.754006416188E-04  1.149473340959E-03  1.487101795449E-03  1.757941731665E-03
  1.945297051519E-03  2.043487729045E-03  2.055359286108E-03  1.989978422018E-03
  1.860552537791E-03  1.682602972603E-03  1.472413009901E-03  1.245762411067E-03
  1.016950728890E-03  7.981022984709E-04  5.987369651738E-04  4.255826458669E-04
  2.825990626629E-04  1.711767256393E-04  9.047169863836E-05  3.783500914577E-05
  9.295818454570E-06  5.961272140805E-08  4.986568712209E-06  1.902065128113E-05
  3.754658530089E-05  5.665921233737E-05  7.333744052658E-05  8.552255003473E-05
  9.210755870799E-05  9.285025551996E-05  8.822701739840E-05  7.924738230099E-05
  6.725042487369E-05  5.370327389957E-05  4.001976600121E-05  2.741352200118E-05
  1.679504619270E-05  8.717249075374E-06  3.368584104398E-06  6.082641607777E-07
  3.422349655236E-08  1.071955159447E-06  3.071285011671E-06  5.398584222006E-06
  7.513748931350E-06  9.024210835449E-06  9.711884380820E-06  9.532827256949E-06
  8.592994756542E-06  7.106353874928E-06  5.343442300696E-06  3.579014892225E-06
  2.046699799919E-06  9.067552588167E-07  2.304032065036E-07  1.255594765912E-09
  0.000000000000E+00  0.000000000000E+00  0.000000000000E+00  0.000000000000E+00
  0.000000000000E+00  0.000000000000E+00  0.000000000000E+00  0.000000000000E+00
  0.000000000000E+00  0.000000000000E+00  0.000000000000E+00  0.000000000000E+00
  0.000000000000E+00  0.000000000000E+00  0.000000000000E+00  0.000000000000E+00
  0.000000000000E+00  0.000000000000E+00  0.000000000000E+00  0.000000000000E+00
  0.000000000000E+00  0.000000000000E+00  0.000000000000E+00  0.000000000000E+00
  0.000000000000E+00  0.000000000000E+00  0.000000000000E+00  0.000000000000E+00
  0.000000000000E+00  0.000000000000E+00  0.000000000000E+00  0.000000000000E+00
  0.000000000000E+00  0.000000000000E+00  0.000000000000E+00  0.000000000000E+00
  0.000000000000E+00  0.000000000000E+00  0.000000000000E+00  0.000000000000E+00
  0.000000000000E+00  0.000000000000E+00  0.000000000000E+00  0.000000000000E+00
  0.000000000000E+00  0.000000000000E+00
</data>
</radfunc>
</pseudocore-charge>
<semilocal-potentials set="scalar_relativistic">
<slps n="5" l="s" rc="2.26546901733">
<radfunc>
<data npts="290">
  6.262079125175E+01  6.257149950202E+01  6.242450631320E+01  6.218045664675E+01
  6.184358489445E+01  6.140490078473E+01  6.085271195648E+01  6.022972409190E+01
  5.954084097369E+01  5.875259047447E+01  5.788299902708E+01  5.695977667227E+01
  5.587339900194E+01  5.477172158637E+01  5.351340476815E+01  5.229918249913E+01
  5.095078786549E+01  4.971927319166E+01  4.838597890982E+01  4.694841001778E+01
  4.540525526643E+01  4.409471677411E+01  4.271740312961E+01  4.127480126449E+01
  3.976915682064E+01  3.820350541791E+01  3.658168634937E+01  3.533122185073E+01
  3.405399710378E+01  3.275248612223E+01  3.142937935391E+01  3.008756392165E+01
  2.873010005888E+01  2.736019409676E+01  2.598116847788E+01  2.459642937728E+01
  2.320943259991E+01  2.182364848986E+01  2.090217152677E+01  1.998377760976E+01
  1.906946110024E+01  1.816019664863E+01  1.725693511609E+01  1.636059973724E+01
  1.547208255810E+01  1.459224117965E+01  1.372189583272E+01  1.286182680535E+01
  1.201277223908E+01  1.117542630542E+01  1.035043776908E+01  9.538408939777E+00
  8.739895009833E+00  7.955403770579E+00  7.185395696711E+00  6.430284384196E+00
  5.690437324300E+00  4.966176993692E+00  4.257782238430E+00  3.565489927958E+00
  2.889496853976E+00  2.229961848207E+00  1.587008092560E+00  9.607255950106E-01
  3.511738045092E-01 -2.416156615760E-01 -8.176362037782E-01 -1.099362200502E+00
 -1.376903366691E+00 -1.650264628260E+00 -1.919451930992E+00 -2.184472149636E+00
 -2.445332997516E+00 -2.702042936859E+00 -2.954611090062E+00 -3.203047152140E+00
 -3.447361304583E+00 -3.687564130875E+00 -3.923666533941E+00 -4.155679655791E+00
 -4.383614799649E+00 -4.607483354883E+00 -4.827296725062E+00 -5.043066259480E+00
 -5.254803188525E+00 -5.462518563292E+00 -5.666223199859E+00 -5.865927628666E+00
 -6.061642049488E+00 -6.253376292484E+00 -6.441139785857E+00 -6.624941530657E+00
 -6.804790083279E+00 -6.980693546248E+00 -7.152659567733E+00 -7.320695350585E+00
 -7.484807671024E+00 -7.645002907834E+00 -7.801287082176E+00 -7.953665908472E+00
 -8.102144856504E+00 -8.246729224802E+00 -8.387424225231E+00 -8.524235078503E+00
 -8.657167120152E+00 -8.786225916277E+00 -8.911417388183E+00 -9.032747944789E+00
 -9.150224621482E+00 -9.263855223902E+00 -9.373648474987E+00 -9.479614163460E+00
 -9.581763291893E+00 -9.680108222430E+00 -9.774662818321E+00 -9.865442579473E+00
 -9.952464770422E+00 -1.003574853930E+01 -1.011531502665E+01 -1.019118746312E+01
 -1.026339125548E+01 -1.033195406055E+01 -1.039690584683E+01 -1.045827894384E+01
 -1.051610807923E+01 -1.057043040371E+01 -1.062128550366E+01 -1.066871540110E+01
 -1.071276454042E+01 -1.075347976059E+01 -1.079091025139E+01 -1.082510749128E+01
 -1.085612516402E+01 -1.088401905060E+01 -1.090884689232E+01 -1.093066822036E+01
 -1.094954414679E+01 -1.096553711206E+01 -1.097871058371E+01 -1.098912870211E+01
 -1.099685586990E+01 -1.100195628373E+01 -1.100449340960E+01 -1.100452940717E+01
 -1.100212451304E+01 -1.099733639978E+01 -1.099021953500E+01 -1.098082457357E+01
 -1.096919782558E+01 -1.095538085164E+01 -1.093941024496E+01 -1.092131766365E+01
 -1.090113017566E+01 -1.087887097105E+01 -1.085456047629E+01 -1.082821787854E+01