<?xml version="1.0" encoding="UTF-8" ?>
<psml version="1.1" energy_unit="hartree" length_unit="bohr"
 uuid="4dc24ce0-5146-11e8-56a7-03e7eff74a09"
 xmlns="http://esl.cecam.org/PSML/ns/1.1">
<provenance creator="ONCVPSP-3.3.0+psml-3.3.0-73 (fully-relativistic)"
 date="2018-05-06">
<annotation action="semilocal-pseudopotential-generation"
 action-cont="projectors-generation" />
<input-file name="oncvpsp-input">
<![CDATA[# atsym z nc nv iexc psfile
Te 52 6 5 4 both
# n l f
1 0 2.0
2 0 2.0
2 1 6.0
3 0 2.0
3 1 6.0
3 2 10.0
4 0 2.0
4 1 6.0
4 2 10.0
5 0 2.0
5 1 4.0
# lmax
2
# l rc ep ncon nbas qcut
0 1.3 0.0 4 8 9.4
1 1.3 0.0 4 8 9.6
2 1.5 0.0 4 8 10.0
# lloc lpopt rc5 dvloc0
4 5 1.3 0.0
# l nproj debl
0 2 3.0
1 2 3.5
2 2 1.6
# icmod fcfact rcfact
3 5.0 1.5
# epsh1 epsh2 depsh
-12.0 12.0 0.02
# rlmax drl
6.0 0.01
 0
]]>
</input-file>
</provenance>
<pseudo-atom-spec atomic-label="Te" atomic-number="52" z-pseudo="24"
 flavor="Hamann&apos;s oncvpsp" relativity="dirac" spin-dft="no"
 core-corrections="yes">
<annotation pseudo-energy="-268.314296325" />
<exchange-correlation>
<annotation oncvpsp-xc-code="4" oncvpsp-xc-type="GGA -- Perdew-Burke-Ernzerhof" />
<libxc-info number-of-functionals="2">
<functional name="Perdew, Burke &amp; Ernzerhof (GGA)" type="exchange" id="101" />
<functional name="Perdew, Burke &amp; Ernzerhof (GGA)" type="correlation"
 id="130" />
</libxc-info>
</exchange-correlation>
<valence-configuration total-valence-charge="24">
<shell n="4" l="s" occupation="2" />
<shell n="4" l="p" occupation="6" />
<shell n="4" l="d" occupation="10" />
<shell n="5" l="s" occupation="2" />
<shell n="5" l="p" occupation="4" />
</valence-configuration>
</pseudo-atom-spec>
<grid npts="457">
<annotation type="sampled from oncvpsp log grid"
 recipe="r(i:1..N) = r1*exp(a*(i-1)) + r=0; resampled"
 recipe-cont="r1: scale; a: step" scale="0.961538461538E-05"
 step="0.119285708653E-01" delta="0.500000000000E-02" rmax="44.1677972533" />
<grid-data>
  0.000000000000E+00  5.043542968859E-03  1.007408127726E-02  1.511272833334E-02
  2.012218676581E-02  2.524090447309E-02  3.054872670761E-02  3.567301166182E-02
  4.067479879938E-02  4.582796137488E-02  5.102172656014E-02  5.613054395614E-02
  6.175090843111E-02  6.712849932167E-02  7.297439884964E-02  7.838872507068E-02
  8.420476653556E-02  8.937977120117E-02  9.487281811536E-02  1.007034533227E-01
  1.068924241165E-01  1.121163565855E-01  1.175955875068E-01  1.233425935539E-01
  1.293704611469E-01  1.356929162517E-01  1.423243556345E-01  1.475097624955E-01
  1.528840930596E-01  1.584542305217E-01  1.642273088569E-01  1.702107219580E-01
  1.764121331045E-01  1.828394847779E-01  1.895010088340E-01  1.964052370456E-01
  2.035610120299E-01  2.109774985736E-01  2.160713392991E-01  2.212881657152E-01
  2.266309471882E-01  2.321027247771E-01  2.377066129641E-01  2.434458014276E-01
  2.493235568572E-01  2.553432248140E-01  2.615082316339E-01  2.678220863785E-01
  2.742883828320E-01  2.809108015471E-01  2.876931119396E-01  2.946391744343E-01
  3.017529426618E-01  3.090384657095E-01  3.164998904256E-01  3.241414637800E-01
  3.319675352815E-01  3.399825594533E-01  3.481910983688E-01  3.565978242478E-01
  3.652075221164E-01  3.740250925304E-01  3.830555543645E-01  3.923040476690E-01
  4.017758365960E-01  4.114763123947E-01  4.214109964812E-01  4.264679284390E-01
  4.315855435802E-01  4.367645701032E-01  4.420057449444E-01  4.473098138838E-01
  4.526775316504E-01  4.581096620302E-01  4.636069779745E-01  4.691702617102E-01
  4.748003048508E-01  4.804979085090E-01  4.862638834111E-01  4.920990500120E-01
  4.980042386121E-01  5.039802894755E-01  5.100280529492E-01  5.161483895846E-01
  5.223421702596E-01  5.286102763027E-01  5.349535996183E-01  5.413730428138E-01
  5.478695193275E-01  5.544439535595E-01  5.610972810022E-01  5.678304483742E-01
  5.746444137547E-01  5.815401467198E-01  5.885186284804E-01  5.955808520222E-01
  6.027278222464E-01  6.099605561134E-01  6.172800827867E-01  6.246874437802E-01
  6.321836931055E-01  6.397698974228E-01  6.474471361919E-01  6.552165018262E-01
  6.630790998481E-01  6.710360490463E-01  6.790884816348E-01  6.872375434144E-01
  6.954843939354E-01  7.038302066626E-01  7.122761691426E-01  7.208234831723E-01
  7.294733649704E-01  7.382270453500E-01  7.470857698942E-01  7.560507991330E-01
  7.651234087225E-01  7.743048896272E-01  7.835965483027E-01  7.929997068824E-01
  8.025157033650E-01  8.121458918053E-01  8.218916425070E-01  8.317543422171E-01
  8.417353943237E-01  8.518362190556E-01  8.620582536842E-01  8.724029527285E-01
  8.828717881612E-01  8.934662496191E-01  9.041878446146E-01  9.150380987499E-01
  9.260185559349E-01  9.371307786062E-01  9.483763479494E-01  9.597568641248E-01
  9.712739464943E-01  9.829292338523E-01  9.947243846585E-01  1.006661077274E+00
  1.018741010202E+00  1.030965902324E+00  1.043337493152E+00  1.055857543070E+00
  1.068527833587E+00  1.081350167590E+00  1.094326369601E+00  1.107458286036E+00
  1.120747785468E+00  1.134196758894E+00  1.147807120001E+00  1.161580805441E+00
  1.175519775106E+00  1.189626012407E+00  1.203901524556E+00  1.218348342851E+00
  1.232968522965E+00  1.247764145241E+00  1.262737314984E+00  1.277890162763E+00
  1.293224844717E+00  1.308743542853E+00  1.324448465367E+00  1.340341846952E+00
  1.356425949115E+00  1.372703060505E+00  1.389175497231E+00  1.405845603197E+00
  1.422715750436E+00  1.439788339441E+00  1.457065799514E+00  1.474550589108E+00
  1.492245196178E+00  1.510152138532E+00  1.528273964194E+00  1.546613251765E+00
  1.565172610786E+00  1.583954682115E+00  1.602962138301E+00  1.622197683960E+00
  1.641664056168E+00  1.661364024842E+00  1.681300393140E+00  1.701475997858E+00
  1.721893709832E+00  1.742556434350E+00  1.763467111562E+00  1.784628716901E+00
  1.806044261504E+00  1.827716792642E+00  1.849649394153E+00  1.871845186883E+00
  1.894307329126E+00  1.917039017075E+00  1.940043485280E+00  1.963324007103E+00
  1.986883895189E+00  2.010726501931E+00  2.034855219954E+00  2.059273482594E+00
  2.083984764385E+00  2.108992581557E+00  2.134300492536E+00  2.159912098446E+00
  2.185831043628E+00  2.212061016151E+00  2.238605748345E+00  2.265469017325E+00
  2.292654645533E+00  2.320166501280E+00  2.348008499295E+00  2.376184601287E+00
  2.404698816502E+00  2.433555202300E+00  2.462757864728E+00  2.492310959104E+00
  2.522218690614E+00  2.552485314901E+00  2.583115138680E+00  2.614112520344E+00
  2.645481870588E+00  2.677227653035E+00  2.709354384872E+00  2.741866637490E+00
  2.774769037140E+00  2.808066265586E+00  2.841763060773E+00  2.875864217502E+00
  2.910374588112E+00  2.945299083169E+00  2.980642672167E+00  3.016410384233E+00
  3.052607308844E+00  3.089238596550E+00  3.126309459709E+00  3.163825173225E+00
  3.201791075304E+00  3.240212568208E+00  3.279095119026E+00  3.318444260454E+00
  3.358265591580E+00  3.398564778679E+00  3.439347556023E+00  3.480619726695E+00
  3.522387163416E+00  3.564655809377E+00  3.607431679089E+00  3.650720859238E+00
  3.694529509549E+00  3.738863863664E+00  3.783730230028E+00  3.829134992788E+00
  3.875084612701E+00  3.921585628054E+00  3.968644655590E+00  4.016268391458E+00
  4.064463612155E+00  4.113237175501E+00  4.162596021607E+00  4.212547173866E+00
  4.263097739953E+00  4.314254912832E+00  4.366025971786E+00  4.418418283447E+00
  4.471439302849E+00  4.525096574483E+00  4.579397733377E+00  4.634350506177E+00
  4.689962712251E+00  4.746242264798E+00  4.803197171976E+00  4.860835538040E+00
  4.919165564496E+00  4.978195551270E+00  5.037933897885E+00  5.098389104660E+00
  5.159569773916E+00  5.221484611203E+00  5.284142426537E+00  5.347552135656E+00
  5.411722761284E+00  5.476663434419E+00  5.542383395632E+00  5.608891996380E+00
  5.676198700336E+00  5.744313084740E+00  5.813244841757E+00  5.883003779858E+00
  5.953599825217E+00  6.025043023119E+00  6.097343539397E+00  6.170511661869E+00
  6.244557801812E+00  6.319492495433E+00  6.395326405379E+00  6.472070322243E+00
  6.549735166110E+00  6.628331988103E+00  6.707871971961E+00  6.788366435624E+00
  6.869826832852E+00  6.952264754846E+00  7.035691931904E+00  7.120120235087E+00
  7.205561677908E+00  7.292028418043E+00  7.379532759059E+00  7.468087152168E+00
  7.557704197994E+00  7.648396648370E+00  7.740177408151E+00  7.833059537048E+00
  7.927056251493E+00  8.022180926511E+00  8.118447097629E+00  8.215868462801E+00
  8.314458884354E+00  8.414232390966E+00  8.515203179658E+00  8.617385617814E+00
  8.720794245228E+00  8.825443776170E+00  8.931349101484E+00  9.038525290702E+00
  9.146987594191E+00  9.256751445321E+00  9.367832462665E+00  9.480246452217E+00
  9.594009409643E+00  9.709137522559E+00  9.825647172830E+00  9.943554938904E+00
  1.006287759817E+01  1.018363212935E+01  1.030583571490E+01  1.042950574348E+01
  1.055465981240E+01  1.068131573015E+01  1.080949151891E+01  1.093920541714E+01
  1.107047588214E+01  1.120332159273E+01  1.133776145184E+01  1.147381458927E+01
  1.161150036434E+01  1.175083836871E+01  1.189184842913E+01  1.203455061028E+01
  1.217896521761E+01  1.232511280022E+01  1.247301415382E+01  1.262269032367E+01
  1.277416260755E+01  1.292745255884E+01  1.308258198955E+01  1.323957297342E+01
  1.339844784910E+01  1.355922922329E+01  1.372193997397E+01  1.388660325366E+01
  1.405324249270E+01  1.422188140261E+01  1.439254397945E+01  1.456525450720E+01
  1.474003756129E+01  1.491691801202E+01  1.509592102817E+01  1.527707208050E+01
  1.546039694547E+01  1.564592170882E+01  1.583367276932E+01  1.602367684255E+01
  1.621596096466E+01  1.641055249624E+01  1.660747912619E+01  1.680676887571E+01
  1.700845010222E+01  1.721255150344E+01  1.741910212148E+01  1.762813134694E+01
  1.783966892311E+01  1.805374495018E+01  1.827038988959E+01  1.848963456826E+01
  1.871151018308E+01  1.893604830528E+01  1.916328088494E+01  1.939324025556E+01
  1.962595913863E+01  1.986147064829E+01  2.009980829607E+01  2.034100599562E+01
  2.058509806757E+01  2.083211924438E+01  2.108210467531E+01  2.133508993142E+01
  2.159111101059E+01  2.185020434272E+01  2.211240679483E+01  2.237775567637E+01
  2.264628874449E+01  2.291804420942E+01  2.319306073993E+01  2.347137746881E+01
  2.375303399844E+01  2.403807040642E+01  2.432652725130E+01  2.461844557831E+01
  2.491386692525E+01  2.521283332836E+01  2.551538732830E+01  2.582157197624E+01
  2.613143083995E+01  2.644500801003E+01  2.676234810615E+01  2.708349628342E+01
  2.740849823883E+01  2.773740021769E+01  2.807024902030E+01  2.840709200855E+01
  2.874797711265E+01  2.909295283800E+01  2.944206827206E+01  2.979537309132E+01
  3.015291756842E+01  3.051475257924E+01  3.088092961019E+01  3.125150076551E+01
  3.162651877470E+01  3.200603700000E+01  3.239010944400E+01  3.277879075732E+01
  3.317213624641E+01  3.357020188137E+01  3.397304430394E+01  3.438072083559E+01
  3.479328948562E+01  3.521080895945E+01  3.563333866696E+01  3.606093873096E+01
  3.649366999573E+01  3.693159403568E+01  3.737477316411E+01  3.782327044208E+01
  3.827714968739E+01  3.873647548363E+01  3.920131318944E+01  3.967172894771E+01
  4.014778969508E+01  4.062956317142E+01  4.111711792948E+01  4.161052334464E+01
  4.210984962477E+01  4.261516782027E+01  4.312654983411E+01  4.364406843212E+01
  4.416779725331E+01
</grid-data>
</grid>
<valence-charge total-charge="24" is-unscreening-charge="yes"
 rescaled-to-z-pseudo="no">
<radfunc>
<data npts="457">
  1.038310139164E+01  1.038976492749E+01  1.040968607333E+01  1.044292683167E+01
  1.048915417079E+01  1.054995813031E+01  1.062748457615E+01  1.071630351869E+01
  1.081622698544E+01  1.093282756343E+01  1.106435047935E+01  1.120741801099E+01
  1.138047467017E+01  1.156138726234E+01  1.177502055463E+01  1.198860258033E+01
  1.223481682785E+01  1.246845722467E+01  1.273139813346E+01  1.302725344276E+01
  1.336006127456E+01  1.365592341920E+01  1.398084676008E+01  1.433759240197E+01
  1.472915733549E+01  1.515878677534E+01  1.562998459819E+01  1.601292000054E+01
  1.642304268741E+01  1.686212756205E+01  1.733203268926E+01  1.783469581315E+01
  1.837212876240E+01  1.894640925812E+01  1.955966955528E+01  2.021408125510E+01
  2.091183552266E+01  2.165511783273E+01  2.217699617176E+01  2.272068484089E+01
  2.328678213095E+01  2.387585827231E+01  2.448844754515E+01  2.512503937522E+01
  2.578606832886E+01  2.647190292052E+01  2.718283314678E+01  2.791905666419E+01
  2.868066353355E+01  2.946761946267E+01  3.027974749180E+01  3.111670808372E+01
  3.197797760292E+01  3.286282519715E+01  3.377028813090E+01  3.469914566410E+01
  3.564789162246E+01  3.661470586870E+01  3.759742495707E+01  3.859351233828E+01
  3.960002857773E+01  4.061360215749E+01  4.163040155097E+01  4.264610938717E+01
  4.365589965814E+01  4.465441906429E+01  4.563577373525E+01  4.611802287949E+01
  4.659352270240E+01  4.706138287761E+01  4.752067962782E+01  4.797045634477E+01
  4.840972440340E+01  4.883746418384E+01  4.925262631489E+01  4.965413315244E+01
  5.004088050609E+01  5.041173962651E+01  5.076555946591E+01  5.110116922264E+01
  5.141738118045E+01  5.171299385129E+01  5.198679542940E+01  5.223756756255E+01
  5.246408944438E+01  5.266514222972E+01  5.283951377206E+01  5.298600367976E+01
  5.310342868444E+01  5.319062831181E+01  5.324647084144E+01  5.326985953823E+01
  5.325973913429E+01  5.321510253555E+01  5.313499772279E+01  5.301853481252E+01
  5.286489323784E+01  5.267332900489E+01  5.244318197558E+01  5.217388312240E+01
  5.186496169639E+01  5.151605224513E+01  5.112690141301E+01  5.069737445266E+01
  5.022746137278E+01  4.971728264513E+01  4.916709439128E+01  4.857729296855E+01
  4.794841887435E+01  4.728115988869E+01  4.657635337674E+01  4.583498767602E+01
  4.505820249765E+01  4.424728827626E+01  4.340368441074E+01  4.252897634633E+01
  4.162489145853E+01  4.069329371087E+01  3.973617707127E+01  3.875565768550E+01
  3.775396482180E+01  3.673343061656E+01  3.569647866775E+01  3.464561154055E+01
  3.358339726688E+01  3.251245493832E+01  3.143543950914E+01  3.035502594234E+01
  2.927389284713E+01  2.819470576995E+01  2.712010031272E+01  2.605266526188E+01
  2.499492591837E+01  2.394932782255E+01  2.291822106904E+01  2.190384540310E+01
  2.090831628421E+01  1.993361209230E+01  1.898156263845E+01  1.805383912479E+01
  1.715194567828E+01  1.627721255978E+01  1.543079112463E+01  1.461365058359E+01
  1.382657658476E+01  1.307017160837E+01  1.234485713756E+01  1.165087754106E+01
  1.098830557784E+01  1.035704941043E+01  9.756860993809E+00  9.187345689712E+00
  8.647972943977E+00  8.138087855913E+00  7.656923464569E+00  7.203613576651E+00
  6.777205964557E+00  6.376675769979E+00  6.000938958179E+00  5.648865679622E+00
  5.319293408279E+00  5.011039738794E+00  4.722915753168E+00  4.453742541588E+00
  4.202368283339E+00  3.967675088165E+00  3.748585487329E+00  3.544067388188E+00
  3.353138157033E+00  3.174867574389E+00  3.008379699119E+00  2.852853643705E+00
  2.707523287328E+00  2.571675974200E+00  2.444649242555E+00  2.325823026156E+00
  2.214610335535E+00  2.110456943831E+00  2.012840714746E+00  1.921270933931E+00
  1.835287529631E+00  1.754460198661E+00  1.678387452344E+00  1.606695595792E+00
  1.539037652734E+00  1.475092247062E+00  1.414562451430E+00  1.357174612476E+00
  1.302677161606E+00  1.250839419664E+00  1.201450403282E+00  1.154317640107E+00
  1.109265999529E+00  1.066136544913E+00  1.024785412688E+00  9.850827229806E-01
  9.469115258153E-01  9.101667862237E-01  8.747544109718E-01  8.405903189981E-01
  8.075995570865E-01  7.757154617794E-01  7.448788680673E-01  7.150373649738E-01
  6.861445977936E-01  6.581596164213E-01  6.310462689418E-01  6.047726394194E-01
  5.793105286344E-01  5.546349763541E-01  5.307238235976E-01  5.075573132511E-01
  4.851177273092E-01  4.633890589617E-01  4.423567177047E-01  4.220072656294E-01
  4.023281830368E-01  3.833076615273E-01  3.649344227330E-01  3.471975608988E-01
  3.300864074736E-01  3.135904161184E-01  2.976990663223E-01  2.824017840701E-01
  2.676878779934E-01  2.535464895130E-01  2.399665555501E-01  2.269367824596E-01
  2.144456299101E-01  2.024813035127E-01  1.910317550778E-01  1.800846894549E-01
  1.696275769860E-01  1.596476706814E-01  1.501320272957E-01  1.410675315583E-01
  1.324409228774E-01  1.242388239091E-01  1.164477704367E-01  1.090542420749E-01
  1.020446933743E-01  9.540558492362E-02  8.912341414242E-02  8.318474546365E-02
  7.757623966307E-02  7.228468212472E-02  6.729700986541E-02  6.260033717022E-02
  5.818197971747E-02  5.402947709450E-02  5.013061362672E-02  4.647343746070E-02
  4.304627785929E-02  3.983776068179E-02  3.683682203673E-02  3.403272010803E-02
  3.141504516795E-02  2.897372780230E-02  2.669904538467E-02  2.458162684738E-02
  2.261245580699E-02  2.078287211173E-02  1.908457188681E-02  1.750960616127E-02
  1.605037816688E-02  1.469963940479E-02  1.345048458046E-02  1.229634550980E-02
  1.123098410212E-02  1.024848452529E-02  9.343244658494E-03  8.509966935902E-03
  7.743648682087E-03  7.039572036231E-03  6.393293557810E-03  5.800633601343E-03
  5.257665542166E-03  4.760704929156E-03  4.306298634027E-03  3.891214060300E-03
  3.512428468500E-03  3.167118467567E-03  2.852649716056E-03  2.566566870411E-03
  2.306583811604E-03  2.070574175701E-03  1.856562208547E-03  1.662713959772E-03
  1.487328826740E-03  1.328831454908E-03  1.185763997357E-03  1.056778733001E-03
  9.406310401726E-04  8.361727198974E-04  7.423456612162E-04  6.581758393541E-04
  5.827676363288E-04  5.152984727238E-04  4.550137387756E-04  4.012220126044E-04
  3.532905533046E-04  3.106410566822E-04  2.727456616297E-04  2.391231954352E-04
  2.093356467032E-04  1.829848549896E-04  1.597094066980E-04  1.391817272414E-04
  1.211053599100E-04  1.052124223117E-04  9.126123164923E-05  7.903409046224E-05
  6.833522480140E-05  5.898886710708E-05  5.083747634511E-05  4.374008820681E-05
  3.757078841581E-05  3.221730240292E-05  2.757969481713E-05  2.356917253967E-05
  2.010698506157E-05  1.712341627740E-05  1.455686193984E-05  1.235298721460E-05
  1.046395897279E-05  8.847747660053E-06  7.467493788161E-06  6.290934305058E-06
  5.289884313864E-06  4.439769828233E-06  3.719207470673E-06  3.109627240329E-06
  2.594934696413E-06  2.161209121593E-06  1.796434445120E-06  1.490259917101E-06
  1.233787732078E-06  1.019385000963E-06  8.405176646030E-07  6.916041289793E-07
  5.678865808415E-07  4.653181127689E-07  3.804639480596E-07  3.104152081327E-07
  2.527138082123E-07  2.052872009150E-07  1.663918120589E-07  1.345641287014E-07
  1.085785063211E-07  8.741086046765E-08  7.020749844317E-08  5.625842901530E-08
  4.497456319990E-08  3.586828720217E-08  2.853695010460E-08  2.264886427231E-08
  1.793146614922E-08  1.416132957073E-08  1.115576334239E-08  8.765760034273E-09
  6.870094109581E-09  5.370395012403E-09  4.187045036495E-09  3.255773012149E-09
  2.524833389807E-09  1.952676451416E-09  1.506029406557E-09  1.158320270802E-09
  8.883868986052E-10  6.794225517971E-10  5.181171078902E-10  3.939596121681E-10
  2.986734992449E-10  2.257605829787E-10  1.701339533249E-10  1.278233265668E-10
  9.573926086125E-11  7.148505064171E-11  5.320711962326E-11  3.947640254221E-11
  2.919459192803E-11  2.152027267830E-11  1.581091224869E-11  1.157745063748E-11
  8.448869971761E-12  6.144642116275E-12  4.453374404955E-12  3.216315260873E-12
  2.314657332313E-12  1.659797713751E-12  1.185892741360E-12  8.441869690046E-13
  5.987090337696E-13  4.230168016585E-13  2.977450300133E-13  2.087645392797E-13
  1.458056007194E-13  1.014323880271E-13  7.028190260405E-14  4.850136634264E-14
  3.333396440510E-14  2.281503573836E-14  1.555016229289E-14  1.055374045042E-14
  7.132034812612E-15  4.798810894019E-15  3.214728128022E-15  2.143987801568E-15
  1.423457626185E-15  9.407785122700E-16  6.189092795649E-16  4.052651009790E-16
  2.641189618261E-16  1.713102555941E-16  1.105771745357E-16  7.102652741063E-17
  4.539655963301E-17  2.886998529310E-17  1.826690629026E-17  1.149877739506E-17
  7.200783268893E-18  4.485614390705E-18  2.779396854272E-18  1.712921834706E-18
  1.049915663731E-18  6.399886196503E-19  3.879373722252E-19  2.338258116278E-19
  1.350080158205E-19  8.053702137995E-20  4.776029784598E-20  0.000000000000E+00
  0.000000000000E+00  0.000000000000E+00  0.000000000000E+00  0.000000000000E+00
  0.000000000000E+00  0.000000000000E+00  0.000000000000E+00  0.000000000000E+00
  0.000000000000E+00  0.000000000000E+00  0.000000000000E+00  0.000000000000E+00
  0.000000000000E+00  0.000000000000E+00  0.000000000000E+00  0.000000000000E+00
  0.000000000000E+00  0.000000000000E+00  0.000000000000E+00  0.000000000000E+00
  0.000000000000E+00  0.000000000000E+00  0.000000000000E+00  0.000000000000E+00
  0.000000000000E+00
</data>
</radfunc>
</valence-charge>
<pseudocore-charge matching-radius="0.503980289475"
 number-of-continuous-derivatives="4">
<annotation model-charge-form="Teter function with specified parameters" />
<radfunc>
<data npts="290">
  2.768789435573E+02  2.768400087756E+02  2.767236363165E+02  2.765295427532E+02
  2.762598017787E+02  2.759053254707E+02  2.754538863380E+02  2.749374121709E+02
  2.743572820187E+02  2.736815468027E+02  2.729208948753E+02  2.720953411733E+02
  2.710993121793E+02  2.700610488474E+02  2.688388765552E+02  2.676211401744E+02
  2.662224187868E+02  2.649000741316E+02  2.634175672365E+02  2.617565458191E+02
  2.598968353745E+02  2.582512265255E+02  2.564521119319E+02  2.544864070964E+02
  2.523401710154E+02  2.499986071450E+02  2.474460799682E+02  2.453833798706E+02
  2.431855688823E+02  2.408452189023E+02  2.383547127872E+02  2.357062775692E+02
  2.328920255360E+02  2.299040041904E+02  2.267342561671E+02  2.233748902343E+02
  2.198181645409E+02  2.160565832779E+02  2.134315101572E+02  2.107102062129E+02
  2.078907839802E+02  2.049714898385E+02  2.019507255706E+02  1.988270714951E+02
  1.955993111841E+02  1.922664577626E+02  1.888277817656E+02  1.852828405026E+02
  1.816315088549E+02  1.778740113961E+02  1.740109556902E+02  1.700433665833E+02
  1.659727212524E+02  1.618009847319E+02  1.575306455742E+02  1.531647512451E+02
  1.487069427862E+02  1.441614882086E+02  1.395333140060E+02  1.348280341033E+02
  1.300519754772E+02  1.252121996108E+02  1.203165188708E+02  1.153735068275E+02
  1.103925014793E+02  1.053836002959E+02  1.003576459634E+02  9.784186013365E+01
  9.532620170322E+01  9.281222271975E+01  9.030151505606E+01  8.779570857336E+01
  8.529646906502E+01  8.280549597431E+01  8.032451988040E+01  7.785529974784E+01
  7.539961993512E+01  7.295928695972E+01  7.053612601740E+01  6.813197725524E+01
  6.574869179922E+01  6.338812753844E+01  6.105214466999E+01  5.874260101004E+01
  5.646134707868E+01  5.421022096808E+01  5.199104300553E+01  4.980561022540E+01
  4.765569066603E+01  4.554301751034E+01  4.346928309122E+01  4.143613278544E+01
  3.944515882224E+01  3.749789403557E+01  3.559580559155E+01  3.374028872494E+01
  3.193266052156E+01  3.017415378528E+01  2.846591103109E+01  2.680897864742E+01
  2.520430127309E+01  2.365271643560E+01  2.215494949908E+01  2.071160897091E+01
  1.932318221689E+01  1.799003163463E+01  1.671239133478E+01  1.549036437856E+01
  1.432392061867E+01  1.321289518855E+01  1.215698768201E+01  1.115576206209E+01
  1.020864733333E+01  9.314939007205E+00  8.473801384404E+00  7.684270671490E+00
  6.945258942180E+00  6.255558945765E+00  5.613849756761E+00  5.018703250785E+00
  4.468591382207E+00  3.961894229191E+00  3.496908761554E+00  3.071858276518E+00
  2.684902437106E+00  2.334147837770E+00  2.017659011989E+00  1.733469787339E+00
  1.479594884980E+00  1.254041652981E+00  1.054821816468E+00  8.799631226431E-01
  7.275207552668E-01  5.955883916144E-01  4.823087752498E-01  3.858836804093E-01
  3.045831484673E-01  2.367538839231E-01  1.808267066449E-01  1.353229687092E-01
  9.885985799201E-02  7.015452657421E-02  4.802699979154E-02  3.140184113355E-02
  1.930856882204E-02  1.088084138371E-02  5.354451411461E-03  2.064188475307E-03
  4.396532511361E-04  1.248113524313E-07  3.486010852372E-04  1.165148179006E-03
  2.199707005562E-03  3.264515024220E-03  4.226306417686E-03  4.998455420129E-03
  5.533224556241E-03  5.814272191621E-03  5.849562114433E-03  5.664802111081E-03
  5.297519071695E-03  4.791855631630E-03  4.194148438775E-03  3.549321679081E-03
  2.898102442695E-03  2.275037885872E-03  1.707268980575E-03  1.213992962635E-03
  8.065273358760E-04  4.888732836415E-04  2.586662254924E-04  1.083964607090E-04
  2.678353141843E-05  1.940071295679E-07  1.400344152404E-05  5.381860385599E-05
  1.064948104008E-04  1.609041374111E-04  2.084322023597E-04  2.432027037779E-04
  2.620486810383E-04  2.642662763396E-04  2.511996377988E-04  2.257137653803E-04
  1.916151891016E-04  1.530783882205E-04  1.141292152802E-04  7.822605831710E-05
  4.796615271245E-05  2.492966196161E-05  9.659315857546E-06  1.759935790445E-06
  9.134284882629E-08  3.020902960551E-06  8.698893894292E-06  1.532110636021E-05
  2.134826695532E-05  2.566020623360E-05  2.763305057154E-05  2.713873272880E-05
  2.447638096375E-05  2.025337404843E-05  1.523904846557E-05  1.021565411918E-05
  5.849127020176E-06  2.597054155394E-06  6.637750345260E-07  4.142114076977E-09
  0.000000000000E+00  0.000000000000E+00  0.000000000000E+00  0.000000000000E+00
  0.000000000000E+00  0.000000000000E+00  0.000000000000E+00  0.000000000000E+00
  0.000000000000E+00  0.000000000000E+00  0.000000000000E+00  0.000000000000E+00
  0.000000000000E+00  0.000000000000E+00  0.000000000000E+00  0.000000000000E+00
  0.000000000000E+00  0.000000000000E+00  0.000000000000E+00  0.000000000000E+00
  0.000000000000E+00  0.000000000000E+00  0.000000000000E+00  0.000000000000E+00
  0.000000000000E+00  0.000000000000E+00  0.000000000000E+00  0.000000000000E+00
  0.000000000000E+00  0.000000000000E+00  0.000000000000E+00  0.000000000000E+00
  0.000000000000E+00  0.000000000000E+00  0.000000000000E+00  0.000000000000E+00
  0.000000000000E+00  0.000000000000E+00  0.000000000000E+00  0.000000000000E+00
  0.000000000000E+00  0.000000000000E+00  0.000000000000E+00  0.000000000000E+00
  0.000000000000E+00  0.000000000000E+00  0.000000000000E+00  0.000000000000E+00
  0.000000000000E+00  0.000000000000E+00  0.000000000000E+00  0.000000000000E+00
  0.000000000000E+00  0.000000000000E+00  0.000000000000E+00  0.000000000000E+00
  0.000000000000E+00  0.000000000000E+00  0.000000000000E+00  0.000000000000E+00
  0.000000000000E+00  0.000000000000E+00  0.000000000000E+00  0.000000000000E+00
  0.000000000000E+00  0.000000000000E+00  0.000000000000E+00  0.000000000000E+00
  0.000000000000E+00  0.000000000000E+00  0.000000000000E+00  0.000000000000E+00
  0.000000000000E+00  0.000000000000E+00  0.000000000000E+00  0.000000000000E+00
  0.000000000000E+00  0.000000000000E+00  0.000000000000E+00  0.000000000000E+00
  0.000000000000E+00  0.000000000000E+00
</data>
</radfunc>
</pseudocore-charge>
<semilocal-potentials set="scalar_relativistic">
<slps n="4" l="s" rc="1.30874354285">
<radfunc>
<data npts="290">
 -2.727723173205E+01 -2.727833736151E+01 -2.728164162757E+01 -2.728715155935E+01
 -2.729480661146E+01 -2.730486221514E+01 -2.731766153987E+01 -2.733229530442E+01
 -2.734872065320E+01 -2.736783680051E+01 -2.738933444328E+01 -2.741264143400E+01
 -2.744072667862E+01 -2.746996243965E+01 -2.750432380855E+01 -2.753850332465E+01
 -2.757769211548E+01 -2.761467131967E+01 -2.765604857427E+01 -2.770230623942E+01
 -2.775396864887E+01 -2.779956951728E+01 -2.784930113606E+01 -2.790348995862E+01
 -2.796247817689E+01 -2.802662215931E+01 -2.809629020023E+01 -2.815239304196E+01
 -2.821197629643E+01 -2.827520138169E+01 -2.834222859911E+01 -2.841321542244E+01
 -2.848831448830E+01 -2.856767125501E+01 -2.865142129436E+01 -2.873968718019E+01
 -2.883257493648E+01 -2.893017000763E+01 -2.899787953508E+01 -2.906771927036E+01
 -2.913969315975E+01 -2.921379767069E+01 -2.929002095089E+01 -2.936834193177E+01
 -2.944872937559E+01 -2.953114086569E+01 -2.961552173964E+01 -2.970180396585E+01
 -2.978990496475E+01 -2.987972637604E+01 -2.997115277473E+01 -3.006405033927E+01
 -3.015826547613E+01 -3.025362340642E+01 -3.034992672115E+01 -3.044695391338E+01
 -3.054445789678E+01 -3.064216452191E+01 -3.073977110329E+01 -3.083694497235E+01
 -3.093332207324E+01 -3.102850562101E+01 -3.112206484371E+01 -3.121353383264E+01
 -3.130241052732E+01 -3.138815586428E+01 -3.147019312134E+01 -3.150963058668E+01
 -3.154790749112E+01 -3.158494100639E+01 -3.162064592007E+01 -3.165493464768E+01
 -3.168771725056E+01 -3.171890145964E+01 -3.174839270546E+01 -3.177609415493E+01
 -3.180190675486E+01 -3.182572928278E+01 -3.184745840525E+01 -3.186698874394E+01
 -3.188421294986E+01 -3.189902178583E+01 -3.191130421759E+01 -3.192094751369E+01
 -3.192783735434E+01 -3.193185794946E+01 -3.193289216603E+01 -3.193082166478E+01
 -3.192552704645E+01 -3.191688800744E+01 -3.190478350498E+01 -3.188909193162E+01
 -3.186969129904E+01 -3.184645943083E+01 -3.181927416413E+01 -3.178801355963E+01
 -3.175255611967E+01 -3.171278101389E+01 -3.166856831184E+01 -3.161979922190E+01
 -3.156635633581E+01 -3.150812387794E+01 -3.144498795837E+01 -3.137683682880E+01
 -3.130356114028E+01 -3.122505420141E+01 -3.114121223605E+01 -3.105193463918E+01
 -3.095712422961E+01 -3.085668749834E+01 -3.075053485138E+01 -3.063858084584E+01
 -3.052074441821E+01 -3.039694910407E+01 -3.026712324854E+01 -3.013120020708E+01
 -2.998911853657E+01 -2.984082217742E+01 -2.968626062711E+01 -2.952538910727E+01
 -2.935816872630E+01 -2.918456664079E+01 -2.900455621989E+01 -2.881811721801E+01
 -2.862523596243E+01 -2.842590556405E+01 -2.822012616132E+01 -2.800790520912E+01
 -2.778925782708E+01 -2.756420722412E+01 -2.733278521905E+01 -2.709503288061E+01
 -2.685100131379E+01 -2.660075262390E+01 -2.634436109432E+01 -2.608191461908E+01
 -2.581351643734E+01 -2.553928722255E+01 -2.525936758574E+01 -2.497392105889E+01
 -2.468313763046E+01 -2.438723791160E+01 -2.408647801615E+01 -2.378115524102E+01
 -2.347161463475E+01 -2.315825653917E+01 -2.284154518247E+01 -2.252201838842E+01
 -2.220029844662E+01 -2.187710415878E+01 -2.155326403713E+01 -2.122973057997E+01