Pt    ONCVPSP-3.3.0  r_core=   1.45722   1.45722   1.45722   1.91724
78.0000     18.0000      180424    zatom,zion,pspd
8      11   3     4   500     0    pspcod,pspxc,lmax,lloc,mmax,r2well
4.99000000  5.00000000  0.00000000    rchrg fchrg qchrg
2     4     4     4    nproj
3     1           extension_switch
4     4     4    nprojso
0                         1.7122328653603D+00  1.7832780406511D+01
1  0.0000000000000D+00  1.9893559022321D-10 -3.6677272330365D-10
2  1.0000000000000D-02 -2.0054176828417D-02  8.1557866866688D-02
3  2.0000000000000D-02 -3.9995629616904D-02  1.6291563000602D-01
4  3.0000000000000D-02 -5.9711896826668D-02  2.4387383104357D-01
5  4.0000000000000D-02 -7.9091027036939D-02  3.2423429519594D-01
6  5.0000000000000D-02 -9.8021810033052D-02  4.0380075798341D-01
7  6.0000000000000D-02 -1.1639399290352D-01  4.8237947688158D-01
8  7.0000000000000D-02 -1.3409848293583D-01  5.5977982472910D-01
9  8.0000000000000D-02 -1.5102753929958D-01  6.3581486207477D-01
10  9.0000000000000D-02 -1.6707495569666D-01  7.1030188603210D-01
11  1.0000000000000D-01 -1.8213623633365D-01  7.8306295360409D-01
12  1.1000000000000D-01 -1.9610876772458D-01  8.5392537783985D-01
13  1.2000000000000D-01 -2.0889198895564D-01  9.2272219558068D-01
14  1.3000000000000D-01 -2.2038756313151D-01  9.8929260594054D-01
15  1.4000000000000D-01 -2.3049955277090D-01  1.0534823790380D+00
16  1.5000000000000D-01 -2.3913460192183D-01  1.1151442348494D+00
17  1.6000000000000D-01 -2.4620212772128D-01  1.1741381923794D+00
18  1.7000000000000D-01 -2.5161452402778D-01  1.2303318896444D+00
19  1.8000000000000D-01 -2.5528737960590D-01  1.2836008752269D+00
20  1.9000000000000D-01 -2.5713971313866D-01  1.3338288723898D+00
21  2.0000000000000D-01 -2.5709422708781D-01  1.3809080169273D+00
22  2.1000000000000D-01 -2.5507758211295D-01  1.4247390700779D+00
23  2.2000000000000D-01 -2.5102069340174D-01  1.4652316079341D+00
24  2.3000000000000D-01 -2.4485904985653D-01  1.5023041888462D+00
25  2.4000000000000D-01 -2.3653305663322D-01  1.5358845003395D+00
26  2.5000000000000D-01 -2.2598840103781D-01  1.5659094870475D+00
27  2.6000000000000D-01 -2.1317644126407D-01  1.5923254611017D+00
28  2.7000000000000D-01 -1.9805461690407D-01  1.6150881963239D+00
29  2.8000000000000D-01 -1.8058687959153D-01  1.6341630074309D+00
30  2.9000000000000D-01 -1.6074414155254D-01  1.6495248153014D+00
31  3.0000000000000D-01 -1.3850473924570D-01  1.6611581991546D+00
32  3.1000000000000D-01 -1.1385490868441D-01  1.6690574362787D+00
33  3.2000000000000D-01 -8.6789268454388D-02  1.6732265297019D+00
34  3.3000000000000D-01 -5.7311305878876D-02  1.6736792239498D+00
35  3.4000000000000D-01 -2.5433861251846D-02  1.6704390087662D+00
36  3.5000000000000D-01  8.8203954374118D-03  1.6635391104027D+00
37  3.6000000000000D-01  4.5418501315771D-02  1.6530224698173D+00
38  3.7000000000000D-01  8.4316757399505D-02  1.6389417068528D+00
39  3.8000000000000D-01  1.2546031209195D-01  1.6213590692171D+00
40  3.9000000000000D-01  1.6878277843601D-01  1.6003463648463D+00
41  4.0000000000000D-01  2.1420589234482D-01  1.5759848760177D+00
42  4.1000000000000D-01  2.6163921914348D-01  1.5483652533912D+00
43  4.2000000000000D-01  3.1097991577890D-01  1.5175873879933D+00
44  4.3000000000000D-01  3.6211255598447D-01  1.4837602590414D+00
45  4.4000000000000D-01  4.1490902552204D-01  1.4470017554123D+00
46  4.5000000000000D-01  4.6922849436040D-01  1.4074384685217D+00
47  4.6000000000000D-01  5.2491747228561D-01  1.3652054543793D+00
48  4.7000000000000D-01  5.8180995397522D-01  1.3204459626312D+00
49  4.8000000000000D-01  6.3972765900550D-01  1.2733111305004D+00
50  4.9000000000000D-01  6.9848037159963D-01  1.2239596396776D+00
51  5.0000000000000D-01  7.5786638417064D-01  1.1725573344118D+00
52  5.1000000000000D-01  8.1767304786933D-01  1.1192767992908D+00
53  5.2000000000000D-01  8.7767743241915D-01  1.0642968954924D+00
54  5.3000000000000D-01  9.3764709651698D-01  1.0078022546237D+00
55  5.4000000000000D-01  9.9734096900794D-01  9.4998272963991D-01
56  5.5000000000000D-01  1.0565103399112D+00  8.9103280275573D-01
57  5.6000000000000D-01  1.1148999591983D+00  8.3115095070808D-01
58  5.7000000000000D-01  1.1722492400114D+00  7.7053896821498D-01
59  5.8000000000000D-01  1.2282935617719D+00  7.0940125097873D-01
60  5.9000000000000D-01  1.2827656673864D+00  6.4794404010682D-01
61  6.0000000000000D-01  1.3353971475099D+00  5.8637463036193D-01
62  6.1000000000000D-01  1.3859200036080D+00  5.2490054519416D-01
63  6.2000000000000D-01  1.4340682803659D+00  4.6372868205037D-01
64  6.3000000000000D-01  1.4795797568502D+00  4.0306443198904D-01
65  6.4000000000000D-01  1.5221976847574D+00  3.4311077814314D-01
66  6.5000000000000D-01  1.5616725610743D+00  2.8406737806886D-01
67  6.6000000000000D-01  1.5977639215775D+00  2.2612963547819D-01
68  6.7000000000000D-01  1.6302421407969D+00  1.6948776727560D-01
69  6.8000000000000D-01  1.6588902233873D+00  1.1432587219853D-01
70  6.9000000000000D-01  1.6835055713088D+00  6.0821007685021D-02
71  7.0000000000000D-01  1.7039017108136D+00  9.1422818592249D-03
72  7.1000000000000D-01  1.7199099629851D+00 -4.0550032272272D-02
73  7.2000000000000D-01  1.7313810414914D+00 -8.8105353186621D-02
74  7.3000000000000D-01  1.7381865612938D+00 -1.3338361048758D-01
75  7.4000000000000D-01  1.7402204423086D+00 -1.7625602055677D-01
76  7.5000000000000D-01  1.7374001924488D+00 -2.1660581104237D-01
77  7.6000000000000D-01  1.7296680550848D+00 -2.5432888719283D-01
78  7.7000000000000D-01  1.7169920067471D+00 -2.8933443330532D-01
79  7.8000000000000D-01  1.6993665918538D+00 -3.2154544290154D-01
80  7.9000000000000D-01  1.6768135823741D+00 -3.5089917166727D-01
81  8.0000000000000D-01  1.6493824516262D+00 -3.7734750769488D-01
82  8.1000000000000D-01  1.6171506528452D+00 -4.0085725414483D-01
83  8.2000000000000D-01  1.5802236947383D+00 -4.2141032008969D-01
84  8.3000000000000D-01  1.5387350079413D+00 -4.3900381601625D-01
85  8.4000000000000D-01  1.4928455981084D+00 -4.5365005123178D-01
86  8.5000000000000D-01  1.4427434832631D+00 -4.6537643124138D-01
87  8.6000000000000D-01  1.3886429150203D+00 -4.7422525402654D-01
88  8.7000000000000D-01  1.3307833853083D+00 -4.8025340505201D-01
89  8.8000000000000D-01  1.2694284222804D+00 -4.8353195174770D-01
90  8.9000000000000D-01  1.2048641811627D+00 -4.8414563914579D-01
91  9.0000000000000D-01  1.1373978378307D+00 -4.8219228928816D-01
92  9.1000000000000D-01  1.0673557949055D+00 -4.7778210794627D-01
93  9.2000000000000D-01  9.9508171209628D-01 -4.7103690310104D-01
94  9.3000000000000D-01  9.2093437435835D-01 -4.6208922050540D-01
95  9.4000000000000D-01  8.4528541316146D-01 -4.5108140248345D-01
96  9.5000000000000D-01  7.6851689775461D-01 -4.3816457689747D-01
97  9.6000000000000D-01  6.9101881473907D-01 -4.2349758392695D-01
98  9.7000000000000D-01  6.1318645550747D-01 -4.0724584894084D-01
99  9.8000000000000D-01  5.3541773215739D-01 -3.8958021030223D-01
100  9.9000000000000D-01  4.5811044329404D-01 -3.7067571139251D-01
101  1.0000000000000D+00  3.8165951175801D-01 -3.5071036651922D-01
102  1.0100000000000D+00  3.0645421663739D-01 -3.2986391061158D-01
103  1.0200000000000D+00  2.3287544202023D-01 -3.0831654275171D-01
104  1.0300000000000D+00  1.6129296477214D-01 -2.8624767361326D-01
105  1.0400000000000D+00  9.2062803163711D-02 -2.6383468677642D-01
106  1.0500000000000D+00  2.5524647475359D-02 -2.4125172367384D-01
107  1.0600000000000D+00 -3.8000607245860D-02 -2.1866850159506D-01
108  1.0700000000000D+00 -9.8213207402080D-02 -1.9624917369484D-01
109  1.0800000000000D+00 -1.5483674858471D-01 -1.7415123940117D-01
110  1.0900000000000D+00 -2.0762022921295D-01 -1.5252451289602D-01
111  1.1000000000000D+00 -2.5633993628514D-01 -1.3151015659746D-01
112  1.1100000000000D+00 -3.0080115163063D-01 -1.1123978568034D-01
113  1.1200000000000D+00 -3.4083966951397D-01 -9.1834648644850D-02
114  1.1300000000000D+00 -3.7632311884442D-01 -7.3404887929327D-02
115  1.1400000000000D+00 -4.0715208599499D-01 -5.6048883392851D-02
116  1.1500000000000D+00 -4.3326103656872D-01 -3.9852680495369D-02
117  1.1600000000000D+00 -4.5461903789868D-01 -2.4889503511304D-02
118  1.1700000000000D+00 -4.7123028657097D-01 -1.1219353019247D-02
119  1.1800000000000D+00 -4.8313444803704D-01  1.1113143062899D-03
120  1.1900000000000D+00 -4.9040681818877D-01  1.2069826810321D-02
121  1.2000000000000D+00 -4.9315831992688D-01  2.1637464494715D-02
122  1.2100000000000D+00 -4.9153535038217D-01  2.9809556977049D-02
123  1.2200000000000D+00 -4.8571949595466D-01  3.6595519240163D-02
124  1.2300000000000D+00 -4.7592713632999D-01  4.2018833457584D-02
125  1.2400000000000D+00 -4.6240895992605D-01  4.6116985791959D-02
126  1.2500000000000D+00 -4.4544941478988D-01  4.8941367782753D-02
127  1.2600000000000D+00 -4.2536612154897D-01  5.0557153149129D-02
128  1.2700000000000D+00 -4.0250930370972D-01  5.1043170882907D-02
129  1.2800000000000D+00 -3.7726114129839D-01  5.0491744700596D-02
130  1.2900000000000D+00 -3.5003528528604D-01  4.9008580559935D-02
131  1.3000000000000D+00 -3.2127544340096D-01  4.6712333551698D-02
132  1.3100000000000D+00 -2.9145978366715D-01  4.3736174172495D-02
133  1.3200000000000D+00 -2.6108837978645D-01  4.0223529402996D-02
134  1.3300000000000D+00 -2.3066300625905D-01  3.6321152401746D-02
135  1.3400000000000D+00 -2.0066484900113D-01  3.2171214565970D-02
136  1.3500000000000D+00 -1.7154326837153D-01  2.7907153024072D-02
137  1.3600000000000D+00 -1.4371713198856D-01  2.3653770853034D-02
138  1.3700000000000D+00 -1.1757002173470D-01  1.9525293860224D-02
139  1.3800000000000D+00 -9.3447767976017D-02  1.5624230535378D-02
140  1.3900000000000D+00 -7.1655752115386D-02  1.2040178061626D-02
141  1.4000000000000D+00 -5.2456686877947D-02  8.8488167695470D-03
142  1.4100000000000D+00 -3.6075733241061D-02  6.1122817589253D-03
143  1.4200000000000D+00 -2.2670192141847D-02  3.8733475014295D-03
144  1.4300000000000D+00 -1.2298912628317D-02  2.1485879570774D-03
145  1.4400000000000D+00 -5.2555681862623D-03  9.9260982214773D-04
146  1.4500000000000D+00 -1.6311463175538D-03  4.1718717518000D-04
147  1.4600000000000D+00 -2.8983160231439D-04  1.7006753695219D-04
148  1.4700000000000D+00  4.1900194707408D-06  3.5374493574550D-05
149  1.4800000000000D+00 -1.4236554021807D-05 -1.1709861551424D-05
150  1.4900000000000D+00 -8.3275394538632D-06 -3.7130781317157D-06
151  1.5000000000000D+00  8.9885082016062D-07  3.2216992856337D-06
152  1.5100000000000D+00  8.6504857307377D-08  1.5105502034390D-07
153  1.5200000000000D+00  1.4564389705628D-06 -6.2989209817892D-07
154  1.5300000000000D+00  0.0000000000000D+00  0.0000000000000D+00
155  1.5400000000000D+00  0.0000000000000D+00  0.0000000000000D+00
156  1.5500000000000D+00  0.0000000000000D+00  0.0000000000000D+00
157  1.5600000000000D+00  0.0000000000000D+00  0.0000000000000D+00
158  1.5700000000000D+00  0.0000000000000D+00  0.0000000000000D+00
159  1.5800000000000D+00  0.0000000000000D+00  0.0000000000000D+00
160  1.5900000000000D+00  0.0000000000000D+00  0.0000000000000D+00
161  1.6000000000000D+00  0.0000000000000D+00  0.0000000000000D+00
162  1.6100000000000D+00  0.0000000000000D+00  0.0000000000000D+00
163  1.6200000000000D+00  0.0000000000000D+00  0.0000000000000D+00
164  1.6300000000000D+00  0.0000000000000D+00  0.0000000000000D+00
165  1.6400000000000D+00  0.0000000000000D+00  0.0000000000000D+00
166  1.6500000000000D+00  0.0000000000000D+00  0.0000000000000D+00
167  1.6600000000000D+00  0.0000000000000D+00  0.0000000000000D+00
168  1.6700000000000D+00  0.0000000000000D+00  0.0000000000000D+00
169  1.6800000000000D+00  0.0000000000000D+00  0.0000000000000D+00
170  1.6900000000000D+00  0.0000000000000D+00  0.0000000000000D+00
171  1.7000000000000D+00  0.0000000000000D+00  0.0000000000000D+00
172  1.7100000000000D+00  0.0000000000000D+00  0.0000000000000D+00
173  1.7200000000000D+00  0.0000000000000D+00  0.0000000000000D+00
174  1.7300000000000D+00  0.0000000000000D+00  0.0000000000000D+00
175  1.7400000000000D+00  0.0000000000000D+00  0.0000000000000D+00
176  1.7500000000000D+00  0.0000000000000D+00  0.0000000000000D+00
177  1.7600000000000D+00  0.0000000000000D+00  0.0000000000000D+00
178  1.7700000000000D+00  0.0000000000000D+00  0.0000000000000D+00
179  1.7800000000000D+00  0.0000000000000D+00  0.0000000000000D+00
180  1.7900000000000D+00  0.0000000000000D+00  0.0000000000000D+00
181  1.8000000000000D+00  0.0000000000000D+00  0.0000000000000D+00
182  1.8100000000000D+00  0.0000000000000D+00  0.0000000000000D+00
183  1.8200000000000D+00  0.0000000000000D+00  0.0000000000000D+00
184  1.8300000000000D+00  0.0000000000000D+00  0.0000000000000D+00
185  1.8400000000000D+00  0.0000000000000D+00  0.0000000000000D+00
186  1.8500000000000D+00  0.0000000000000D+00  0.0000000000000D+00
187  1.8600000000000D+00  0.0000000000000D+00  0.0000000000000D+00
188  1.8700000000000D+00  0.0000000000000D+00  0.0000000000000D+00
189  1.8800000000000D+00  0.0000000000000D+00  0.0000000000000D+00
190  1.8900000000000D+00  0.0000000000000D+00  0.0000000000000D+00
191  1.9000000000000D+00  0.0000000000000D+00  0.0000000000000D+00
192  1.9100000000000D+00  0.0000000000000D+00  0.0000000000000D+00
193  1.9200000000000D+00  0.0000000000000D+00  0.0000000000000D+00
194  1.9300000000000D+00  0.0000000000000D+00  0.0000000000000D+00
195  1.9400000000000D+00  0.0000000000000D+00  0.0000000000000D+00
196  1.9500000000000D+00  0.0000000000000D+00  0.0000000000000D+00
197  1.9600000000000D+00  0.0000000000000D+00  0.0000000000000D+00
198  1.9700000000000D+00  0.0000000000000D+00  0.0000000000000D+00
199  1.9800000000000D+00  0.0000000000000D+00  0.0000000000000D+00
200  1.9900000000000D+00  0.0000000000000D+00  0.0000000000000D+00
201  2.0000000000000D+00  0.0000000000000D+00  0.0000000000000D+00
202  2.0100000000000D+00  0.0000000000000D+00  0.0000000000000D+00
203  2.0200000000000D+00  0.0000000000000D+00  0.0000000000000D+00
204  2.0300000000000D+00  0.0000000000000D+00  0.0000000000000D+00
205  2.0400000000000D+00  0.0000000000000D+00  0.0000000000000D+00
206  2.0500000000000D+00  0.0000000000000D+00  0.0000000000000D+00
207  2.0600000000000D+00  0.0000000000000D+00  0.0000000000000D+00
208  2.0700000000000D+00  0.0000000000000D+00  0.0000000000000D+00
209  2.0800000000000D+00  0.0000000000000D+00  0.0000000000000D+00
210  2.0900000000000D+00  0.0000000000000D+00  0.0000000000000D+00
211  2.1000000000000D+00  0.0000000000000D+00  0.0000000000000D+00
212  2.1100000000000D+00  0.0000000000000D+00  0.0000000000000D+00
213  2.1200000000000D+00  0.0000000000000D+00  0.0000000000000D+00
214  2.1300000000000D+00  0.0000000000000D+00  0.0000000000000D+00
215  2.1400000000000D+00  0.0000000000000D+00  0.0000000000000D+00
216  2.1500000000000D+00  0.0000000000000D+00  0.0000000000000D+00
217  2.1600000000000D+00  0.0000000000000D+00  0.0000000000000D+00
218  2.1700000000000D+00  0.0000000000000D+00  0.0000000000000D+00
219  2.1800000000000D+00  0.0000000000000D+00  0.0000000000000D+00
220  2.1900000000000D+00  0.0000000000000D+00  0.0000000000000D+00
221  2.2000000000000D+00  0.0000000000000D+00  0.0000000000000D+00
222  2.2100000000000D+00  0.0000000000000D+00  0.0000000000000D+00
223  2.2200000000000D+00  0.0000000000000D+00  0.0000000000000D+00
224  2.2300000000000D+00  0.0000000000000D+00  0.0000000000000D+00
225  2.2400000000000D+00  0.0000000000000D+00  0.0000000000000D+00
226  2.2500000000000D+00  0.0000000000000D+00  0.0000000000000D+00
227  2.2600000000000D+00  0.0000000000000D+00  0.0000000000000D+00
228  2.2700000000000D+00  0.0000000000000D+00  0.0000000000000D+00
229  2.2800000000000D+00  0.0000000000000D+00  0.0000000000000D+00
230  2.2900000000000D+00  0.0000000000000D+00  0.0000000000000D+00
231  2.3000000000000D+00  0.0000000000000D+00  0.0000000000000D+00
232  2.3100000000000D+00  0.0000000000000D+00  0.0000000000000D+00
233  2.3200000000000D+00  0.0000000000000D+00  0.0000000000000D+00
234  2.3300000000000D+00  0.0000000000000D+00  0.0000000000000D+00
235  2.3400000000000D+00  0.0000000000000D+00  0.0000000000000D+00
236  2.3500000000000D+00  0.0000000000000D+00  0.0000000000000D+00
237  2.3600000000000D+00  0.0000000000000D+00  0.0000000000000D+00
238  2.3700000000000D+00  0.0000000000000D+00  0.0000000000000D+00
239  2.3800000000000D+00  0.0000000000000D+00  0.0000000000000D+00
240  2.3900000000000D+00  0.0000000000000D+00  0.0000000000000D+00
241  2.4000000000000D+00  0.0000000000000D+00  0.0000000000000D+00
242  2.4100000000000D+00  0.0000000000000D+00  0.0000000000000D+00
243  2.4200000000000D+00  0.0000000000000D+00  0.0000000000000D+00
244  2.4300000000000D+00  0.0000000000000D+00  0.0000000000000D+00
245  2.4400000000000D+00  0.0000000000000D+00  0.0000000000000D+00
246  2.4500000000000D+00  0.0000000000000D+00  0.0000000000000D+00
247  2.4600000000000D+00  0.0000000000000D+00  0.0000000000000D+00
248  2.4700000000000D+00  0.0000000000000D+00  0.0000000000000D+00
249  2.4800000000000D+00  0.0000000000000D+00  0.0000000000000D+00
250  2.4900000000000D+00  0.0000000000000D+00  0.0000000000000D+00
251  2.5000000000000D+00  0.0000000000000D+00  0.0000000000000D+00
252  2.5100000000000D+00  0.0000000000000D+00  0.0000000000000D+00
253  2.5200000000000D+00  0.0000000000000D+00  0.0000000000000D+00
254  2.5300000000000D+00  0.0000000000000D+00  0.0000000000000D+00
255  2.5400000000000D+00  0.0000000000000D+00  0.0000000000000D+00
256  2.5500000000000D+00  0.0000000000000D+00  0.0000000000000D+00
257  2.5600000000000D+00  0.0000000000000D+00  0.0000000000000D+00
258  2.5700000000000D+00  0.0000000000000D+00  0.0000000000000D+00
259  2.5800000000000D+00  0.0000000000000D+00  0.0000000000000D+00
260  2.5900000000000D+00  0.0000000000000D+00  0.0000000000000D+00
261  2.6000000000000D+00  0.0000000000000D+00  0.0000000000000D+00
262  2.6100000000000D+00  0.0000000000000D+00  0.0000000000000D+00
263  2.6200000000000D+00  0.0000000000000D+00  0.0000000000000D+00
264  2.6300000000000D+00  0.0000000000000D+00  0.0000000000000D+00
265  2.6400000000000D+00  0.0000000000000D+00  0.0000000000000D+00
266  2.6500000000000D+00  0.0000000000000D+00  0.0000000000000D+00
267  2.6600000000000D+00  0.0000000000000D+00  0.0000000000000D+00
268  2.6700000000000D+00  0.0000000000000D+00  0.0000000000000D+00
269  2.6800000000000D+00  0.0000000000000D+00  0.0000000000000D+00
270  2.6900000000000D+00  0.0000000000000D+00  0.0000000000000D+00
271  2.7000000000000D+00  0.0000000000000D+00  0.0000000000000D+00
272  2.7100000000000D+00  0.0000000000000D+00  0.0000000000000D+00
273  2.7200000000000D+00  0.0000000000000D+00  0.0000000000000D+00
274  2.7300000000000D+00  0.0000000000000D+00  0.0000000000000D+00
275  2.7400000000000D+00  0.0000000000000D+00  0.0000000000000D+00
276  2.7500000000000D+00  0.0000000000000D+00  0.0000000000000D+00
277  2.7600000000000D+00  0.0000000000000D+00  0.0000000000000D+00
278  2.7700000000000D+00  0.0000000000000D+00  0.0000000000000D+00
279  2.7800000000000D+00  0.0000000000000D+00  0.0000000000000D+00
280  2.7900000000000D+00  0.0000000000000D+00  0.0000000000000D+00
281  2.8000000000000D+00  0.0000000000000D+00  0.0000000000000D+00
282  2.8100000000000D+00  0.0000000000000D+00  0.0000000000000D+00
283  2.8200000000000D+00  0.0000000000000D+00  0.0000000000000D+00
284  2.8300000000000D+00  0.0000000000000D+00  0.0000000000000D+00
285  2.8400000000000D+00  0.0000000000000D+00  0.0000000000000D+00
286  2.8500000000000D+00  0.0000000000000D+00  0.0000000000000D+00
287  2.8600000000000D+00  0.0000000000000D+00  0.0000000000000D+00
288  2.8700000000000D+00  0.0000000000000D+00  0.0000000000000D+00
289  2.8800000000000D+00  0.0000000000000D+00  0.0000000000000D+00
290  2.8900000000000D+00  0.0000000000000D+00  0.0000000000000D+00
291  2.9000000000000D+00  0.0000000000000D+00  0.0000000000000D+00
292  2.9100000000000D+00  0.0000000000000D+00  0.0000000000000D+00
293  2.9200000000000D+00  0.0000000000000D+00  0.0000000000000D+00
294  2.9300000000000D+00  0.0000000000000D+00  0.0000000000000D+00
295  2.9400000000000D+00  0.0000000000000D+00  0.0000000000000D+00
296  2.9500000000000D+00  0.0000000000000D+00  0.0000000000000D+00
297  2.9600000000000D+00  0.0000000000000D+00  0.0000000000000D+00
298  2.9700000000000D+00  0.0000000000000D+00  0.0000000000000D+00
299  2.9800000000000D+00  0.0000000000000D+00  0.0000000000000D+00
300  2.9900000000000D+00  0.0000000000000D+00  0.0000000000000D+00
301  3.0000000000000D+00  0.0000000000000D+00  0.0000000000000D+00
302  3.0100000000000D+00  0.0000000000000D+00  0.0000000000000D+00
303  3.0200000000000D+00  0.0000000000000D+00  0.0000000000000D+00
304  3.0300000000000D+00  0.0000000000000D+00  0.0000000000000D+00
305  3.0400000000000D+00  0.0000000000000D+00  0.0000000000000D+00
306  3.0500000000000D+00  0.0000000000000D+00  0.0000000000000D+00
307  3.0600000000000D+00  0.0000000000000D+00  0.0000000000000D+00
308  3.0700000000000D+00  0.0000000000000D+00  0.0000000000000D+00
309  3.0800000000000D+00  0.0000000000000D+00  0.0000000000000D+00
310  3.0900000000000D+00  0.0000000000000D+00  0.0000000000000D+00
311  3.1000000000000D+00  0.0000000000000D+00  0.0000000000000D+00
312  3.1100000000000D+00  0.0000000000000D+00  0.0000000000000D+00
313  3.1200000000000D+00  0.0000000000000D+00  0.0000000000000D+00
314  3.1300000000000D+00  0.0000000000000D+00  0.0000000000000D+00
315  3.1400000000000D+00  0.0000000000000D+00  0.0000000000000D+00
316  3.1500000000000D+00  0.0000000000000D+00  0.0000000000000D+00
317  3.1600000000000D+00  0.0000000000000D+00  0.0000000000000D+00
318  3.1700000000000D+00  0.0000000000000D+00  0.0000000000000D+00
319  3.1800000000000D+00  0.0000000000000D+00  0.0000000000000D+00
320  3.1900000000000D+00  0.0000000000000D+00  0.0000000000000D+00
321  3.2000000000000D+00  0.0000000000000D+00  0.0000000000000D+00
322  3.2100000000000D+00  0.0000000000000D+00  0.0000000000000D+00
323  3.2200000000000D+00  0.0000000000000D+00  0.0000000000000D+00
324  3.2300000000000D+00  0.0000000000000D+00  0.0000000000000D+00
325  3.2400000000000D+00  0.0000000000000D+00  0.0000000000000D+00
326  3.2500000000000D+00  0.0000000000000D+00  0.0000000000000D+00
327  3.2600000000000D+00  0.0000000000000D+00  0.0000000000000D+00
328  3.2700000000000D+00  0.0000000000000D+00  0.0000000000000D+00
329  3.2800000000000D+00  0.0000000000000D+00  0.0000000000000D+00
330  3.2900000000000D+00  0.0000000000000D+00  0.0000000000000D+00
331  3.3000000000000D+00  0.0000000000000D+00  0.0000000000000D+00
332  3.3100000000000D+00  0.0000000000000D+00  0.0000000000000D+00
333  3.3200000000000D+00  0.0000000000000D+00  0.0000000000000D+00
334  3.3300000000000D+00  0.0000000000000D+00  0.0000000000000D+00
335  3.3400000000000D+00  0.0000000000000D+00  0.0000000000000D+00
336  3.3500000000000D+00  0.0000000000000D+00  0.0000000000000D+00
337  3.3600000000000D+00  0.0000000000000D+00  0.0000000000000D+00
338  3.3700000000000D+00  0.0000000000000D+00  0.0000000000000D+00
339  3.3800000000000D+00  0.0000000000000D+00  0.0000000000000D+00
340  3.3900000000000D+00  0.0000000000000D+00  0.0000000000000D+00
341  3.4000000000000D+00  0.0000000000000D+00  0.0000000000000D+00
342  3.4100000000000D+00  0.0000000000000D+00  0.0000000000000D+00
343  3.4200000000000D+00  0.0000000000000D+00  0.0000000000000D+00
344  3.4300000000000D+00  0.0000000000000D+00  0.0000000000000D+00
345  3.4400000000000D+00  0.0000000000000D+00  0.0000000000000D+00
346  3.4500000000000D+00  0.0000000000000D+00  0.0000000000000D+00
347  3.4600000000000D+00  0.0000000000000D+00  0.0000000000000D+00
348  3.4700000000000D+00  0.0000000000000D+00  0.0000000000000D+00
349  3.4800000000000D+00  0.0000000000000D+00  0.0000000000000D+00
350  3.4900000000000D+00  0.0000000000000D+00  0.0000000000000D+00
351  3.5000000000000D+00  0.0000000000000D+00  0.0000000000000D+00
352  3.5100000000000D+00  0.0000000000000D+00  0.0000000000000D+00
353  3.5200000000000D+00  0.0000000000000D+00  0.0000000000000D+00
354  3.5300000000000D+00  0.0000000000000D+00  0.0000000000000D+00
355  3.5400000000000D+00  0.0000000000000D+00  0.0000000000000D+00
356  3.5500000000000D+00  0.0000000000000D+00  0.0000000000000D+00
357  3.5600000000000D+00  0.0000000000000D+00  0.0000000000000D+00
358  3.5700000000000D+00  0.0000000000000D+00  0.0000000000000D+00
359  3.5800000000000D+00  0.0000000000000D+00  0.0000000000000D+00
360  3.5900000000000D+00  0.0000000000000D+00  0.0000000000000D+00
361  3.6000000000000D+00  0.0000000000000D+00  0.0000000000000D+00
362  3.6100000000000D+00  0.0000000000000D+00  0.0000000000000D+00
363  3.6200000000000D+00  0.0000000000000D+00  0.0000000000000D+00
364  3.6300000000000D+00  0.0000000000000D+00  0.0000000000000D+00
365  3.6400000000000D+00  0.0000000000000D+00  0.0000000000000D+00
366  3.6500000000000D+00  0.0000000000000D+00  0.0000000000000D+00
367  3.6600000000000D+00  0.0000000000000D+00  0.0000000000000D+00
368  3.6700000000000D+00  0.0000000000000D+00  0.0000000000000D+00
369  3.6800000000000D+00  0.0000000000000D+00  0.0000000000000D+00
370  3.6900000000000D+00  0.0000000000000D+00  0.0000000000000D+00
371  3.7000000000000D+00  0.0000000000000D+00  0.0000000000000D+00
372  3.7100000000000D+00  0.0000000000000D+00  0.0000000000000D+00
373  3.7200000000000D+00  0.0000000000000D+00  0.0000000000000D+00
374  3.7300000000000D+00  0.0000000000000D+00  0.0000000000000D+00
375  3.7400000000000D+00  0.0000000000000D+00  0.0000000000000D+00
376  3.7500000000000D+00  0.0000000000000D+00  0.0000000000000D+00
377  3.7600000000000D+00  0.0000000000000D+00  0.0000000000000D+00
378  3.7700000000000D+00  0.0000000000000D+00  0.0000000000000D+00
379  3.7800000000000D+00  0.0000000000000D+00  0.0000000000000D+00
380  3.7900000000000D+00  0.0000000000000D+00  0.0000000000000D+00
381  3.8000000000000D+00  0.0000000000000D+00  0.0000000000000D+00
382  3.8100000000000D+00  0.0000000000000D+00  0.0000000000000D+00
383  3.8200000000000D+00  0.0000000000000D+00  0.0000000000000D+00
384  3.8300000000000D+00  0.0000000000000D+00  0.0000000000000D+00
385  3.8400000000000D+00  0.0000000000000D+00  0.0000000000000D+00
386  3.8500000000000D+00  0.0000000000000D+00  0.0000000000000D+00
387  3.8600000000000D+00  0.0000000000000D+00  0.0000000000000D+00
388  3.8700000000000D+00  0.0000000000000D+00  0.0000000000000D+00
389  3.8800000000000D+00  0.0000000000000D+00  0.0000000000000D+00
390  3.8900000000000D+00  0.0000000000000D+00  0.0000000000000D+00
391  3.9000000000000D+00  0.0000000000000D+00  0.0000000000000D+00
392  3.9100000000000D+00  0.0000000000000D+00  0.0000000000000D+00
393  3.9200000000000D+00  0.0000000000000D+00  0.0000000000000D+00
394  3.9300000000000D+00  0.0000000000000D+00  0.0000000000000D+00
395  3.9400000000000D+00  0.0000000000000D+00  0.0000000000000D+00
396  3.9500000000000D+00  0.0000000000000D+00  0.0000000000000D+00
397  3.9600000000000D+00  0.0000000000000D+00  0.0000000000000D+00
398  3.9700000000000D+00  0.0000000000000D+00  0.0000000000000D+00
399  3.9800000000000D+00  0.0000000000000D+00  0.0000000000000D+00
400  3.9900000000000D+00  0.0000000000000D+00  0.0000000000000D+00
401  4.0000000000000D+00  0.0000000000000D+00  0.0000000000000D+00
402  4.0100000000000D+00  0.0000000000000D+00  0.0000000000000D+00
403  4.0200000000000D+00  0.0000000000000D+00  0.0000000000000D+00
404  4.0300000000000D+00  0.0000000000000D+00  0.0000000000000D+00
405  4.0400000000000D+00  0.0000000000000D+00  0.0000000000000D+00
406  4.0500000000000D+00  0.0000000000000D+00  0.0000000000000D+00
407  4.0600000000000D+00  0.0000000000000D+00  0.0000000000000D+00
408  4.0700000000000D+00  0.0000000000000D+00  0.0000000000000D+00
409  4.0800000000000D+00  0.0000000000000D+00  0.0000000000000D+00
410  4.0900000000000D+00  0.0000000000000D+00  0.0000000000000D+00
411  4.1000000000000D+00  0.0000000000000D+00  0.0000000000000D+00
412  4.1100000000000D+00  0.0000000000000D+00  0.0000000000000D+00
413  4.1200000000000D+00  0.0000000000000D+00  0.0000000000000D+00
414  4.1300000000000D+00  0.0000000000000D+00  0.0000000000000D+00
415  4.1400000000000D+00  0.0000000000000D+00  0.0000000000000D+00
416  4.1500000000000D+00  0.0000000000000D+00  0.0000000000000D+00
417  4.1600000000000D+00  0.0000000000000D+00  0.0000000000000D+00
418  4.1700000000000D+00  0.0000000000000D+00  0.0000000000000D+00
419  4.1800000000000D+00  0.0000000000000D+00  0.0000000000000D+00
420  4.1900000000000D+00  0.0000000000000D+00  0.0000000000000D+00
421  4.2000000000000D+00  0.0000000000000D+00  0.0000000000000D+00
422  4.2100000000000D+00  0.0000000000000D+00  0.0000000000000D+00
423  4.2200000000000D+00  0.0000000000000D+00  0.0000000000000D+00
424  4.2300000000000D+00  0.0000000000000D+00  0.0000000000000D+00
425  4.2400000000000D+00  0.0000000000000D+00  0.0000000000000D+00
426  4.2500000000000D+00  0.0000000000000D+00  0.0000000000000D+00
427  4.2600000000000D+00  0.0000000000000D+00  0.0000000000000D+00
428  4.2700000000000D+00  0.0000000000000D+00  0.0000000000000D+00
429  4.2800000000000D+00  0.0000000000000D+00  0.0000000000000D+00
430  4.2900000000000D+00  0.0000000000000D+00  0.0000000000000D+00
431  4.3000000000000D+00  0.0000000000000D+00  0.0000000000000D+00
432  4.3100000000000D+00  0.0000000000000D+00  0.0000000000000D+00
433  4.3200000000000D+00  0.0000000000000D+00  0.0000000000000D+00
434  4.3300000000000D+00  0.0000000000000D+00  0.0000000000000D+00
435  4.3400000000000D+00  0.0000000000000D+00  0.0000000000000D+00
436  4.3500000000000D+00  0.0000000000000D+00  0.0000000000000D+00
437  4.3600000000000D+00  0.0000000000000D+00  0.0000000000000D+00
438  4.3700000000000D+00  0.0000000000000D+00  0.0000000000000D+00
439  4.3800000000000D+00  0.0000000000000D+00  0.0000000000000D+00
440  4.3900000000000D+00  0.0000000000000D+00  0.0000000000000D+00
441  4.4000000000000D+00  0.0000000000000D+00  0.0000000000000D+00
442  4.4100000000000D+00  0.0000000000000D+00  0.0000000000000D+00
443  4.4200000000000D+00  0.0000000000000D+00  0.0000000000000D+00