<?xml version="1.0" encoding="UTF-8" ?>
<psml version="1.1" energy_unit="hartree" length_unit="bohr"
 uuid="b6280490-47ec-11e8-4c86-b00dbff819fd"
 xmlns="http://esl.cecam.org/PSML/ns/1.1">
<provenance creator="ONCVPSP-3.3.0+psml-3.3.0-73 (fully-relativistic)"
 date="2018-04-24">
<annotation action="semilocal-pseudopotential-generation"
 action-cont="projectors-generation" />
<input-file name="oncvpsp-input">
<![CDATA[# atsym z nc nv iexc psfile
Pt 78 10 4 4 both
# n l f
1 0 2.0
2 0 2.0
2 1 6.0
3 0 2.0
3 1 6.0
3 2 10.0
4 0 2.0
4 1 6.0
4 2 10.0
4 3 14.0
5 0 2.0
5 1 6.0
5 2 9.0
6 0 1.0
# lmax
3
# l rc ep ncon nbas qcut
0 1.45 0.0 4 7 8.8
1 1.45 0.0 4 7 9.0
2 1.45 0.0 4 7 8.8
3 1.9 0.1 4 8 6.8
# lloc lpopt rc5 dvloc0
4 3 1.3 0.0
# l nproj debl
0 2 1.0
1 2 2.5
2 2 1.0
3 2 3.0
# icmod fcfact rcfact
3 5.0 1.37
# epsh1 epsh2 depsh
-14.0 12.0 0.02
# rlmax drl
5.0 0.01
 0
]]>
</input-file>
</provenance>
<pseudo-atom-spec atomic-label="Pt" atomic-number="78" z-pseudo="18"
 flavor="Hamann&apos;s oncvpsp" relativity="dirac" spin-dft="no"
 core-corrections="yes">
<annotation pseudo-energy="-121.104350547" />
<exchange-correlation>
<annotation oncvpsp-xc-code="4" oncvpsp-xc-type="GGA -- Perdew-Burke-Ernzerhof" />
<libxc-info number-of-functionals="2">
<functional name="Perdew, Burke &amp; Ernzerhof (GGA)" type="exchange" id="101" />
<functional name="Perdew, Burke &amp; Ernzerhof (GGA)" type="correlation"
 id="130" />
</libxc-info>
</exchange-correlation>
<valence-configuration total-valence-charge="18">
<shell n="5" l="s" occupation="2" />
<shell n="5" l="p" occupation="6" />
<shell n="5" l="d" occupation="9" />
<shell n="6" l="s" occupation="1" />
</valence-configuration>
</pseudo-atom-spec>
<grid npts="457">
<annotation type="sampled from oncvpsp log grid"
 recipe="r(i:1..N) = r1*exp(a*(i-1)) + r=0; resampled"
 recipe-cont="r1: scale; a: step" scale="0.641025641026E-05"
 step="0.119285708653E-01" delta="0.500000000000E-02" rmax="44.1724925976" />
<grid-data>
  0.000000000000E+00  5.044079132587E-03  1.007515222223E-02  1.511433492157E-02
  2.012432589434E-02  2.524358775694E-02  3.055197424992E-02  3.567680395129E-02
  4.067912281364E-02  4.583283320620E-02  5.102715052485E-02  5.613651102371E-02
  6.175747298255E-02  6.713563554845E-02  7.298215653624E-02  7.839705833785E-02
  8.421371808842E-02  8.938927289305E-02  9.488290375636E-02  1.007141588008E-01
  1.069037875253E-01  1.121282753347E-01  1.176080887363E-01  1.233557057302E-01
  1.293842141275E-01  1.357073413533E-01  1.423394857043E-01  1.475254438101E-01
  1.529003457030E-01  1.584710753094E-01  1.642447673631E-01  1.702288165427E-01
  1.764308869423E-01  1.828589218880E-01  1.895211541104E-01  1.964261162895E-01
  2.035826519825E-01  2.109999269504E-01  2.160943091867E-01  2.213116901877E-01
  2.266550396356E-01  2.321273989125E-01  2.377318828319E-01  2.434716814109E-01
  2.493500616869E-01  2.553703695763E-01  2.615360317794E-01  2.678505577306E-01
  2.743175415965E-01  2.809406643208E-01  2.877236957202E-01  2.946704966296E-01
  3.017850211002E-01  3.090713186497E-01  3.165335365672E-01  3.241759222740E-01
  3.320028257414E-01  3.400187019661E-01  3.482281135064E-01  3.566357330789E-01
  3.652463462184E-01  3.740648540015E-01  3.830962758365E-01  3.923457523203E-01
  4.018185481643E-01  4.115200551912E-01  4.214557954037E-01  4.265132649485E-01
  4.316314241279E-01  4.368110012175E-01  4.420527332321E-01  4.473573660308E-01
  4.527256544232E-01  4.581583622763E-01  4.636562626236E-01  4.692201377751E-01
  4.748507794284E-01  4.805489887815E-01  4.863155766469E-01  4.921513635667E-01
  4.980571799295E-01  5.040338660886E-01  5.100822724817E-01  5.162032597515E-01
  5.223976988685E-01  5.286664712549E-01  5.350104689100E-01  5.414305945369E-01
  5.479277616713E-01  5.545028948114E-01  5.611569295491E-01  5.678908127037E-01
  5.747055024562E-01  5.816019684856E-01  5.885811921075E-01  5.956441664128E-01
  6.027918964097E-01  6.100253991666E-01  6.173457039566E-01  6.247538524041E-01
  6.322508986330E-01  6.398379094166E-01  6.475159643295E-01  6.552861559015E-01
  6.631495897723E-01  6.711073848496E-01  6.791606734678E-01  6.873106015494E-01
  6.955583287680E-01  7.039050287132E-01  7.123518890578E-01  7.209001117265E-01
  7.295509130672E-01  7.383055240240E-01  7.471651903123E-01  7.561311725960E-01
  7.652047466672E-01  7.743872036272E-01  7.836798500707E-01  7.930840082715E-01
  8.026010163708E-01  8.122322285673E-01  8.219790153101E-01  8.318427634938E-01
  8.418248766557E-01  8.519267751756E-01  8.621498964777E-01  8.724956952354E-01
  8.829656435782E-01  8.935612313012E-01  9.042839660768E-01  9.151353736697E-01
  9.261169981538E-01  9.372304021316E-01  9.484771669572E-01  9.598588929607E-01
  9.713771996762E-01  9.830337260723E-01  9.948301307852E-01  1.006768092355E+00
  1.018849309463E+00  1.031075501176E+00  1.043448407191E+00  1.055969788077E+00
  1.068641425534E+00  1.081465122640E+00  1.094442704112E+00  1.107576016561E+00
  1.120866928760E+00  1.134317331905E+00  1.147929139888E+00  1.161704289567E+00
  1.175644741041E+00  1.189752477934E+00  1.204029507669E+00  1.218477861761E+00
  1.233099596102E+00  1.247896791255E+00  1.262871552750E+00  1.278026011383E+00
  1.293362323520E+00  1.308882671402E+00  1.324589263459E+00  1.340484334621E+00
  1.356570146636E+00  1.372848988396E+00  1.389323176256E+00  1.405995054372E+00
  1.422866995024E+00  1.439941398964E+00  1.457220695752E+00  1.474707344101E+00
  1.492403832230E+00  1.510312678217E+00  1.528436430355E+00  1.546777667520E+00
  1.565338999530E+00  1.584123067524E+00  1.603132544335E+00  1.622370134867E+00
  1.641838576485E+00  1.661540639403E+00  1.681479127076E+00  1.701656876601E+00
  1.722076759120E+00  1.742741680229E+00  1.763654580392E+00  1.784818435357E+00
  1.806236256581E+00  1.827911091660E+00  1.849846024760E+00  1.872044177057E+00
  1.894508707182E+00  1.917242811668E+00  1.940249725408E+00  1.963532722113E+00
  1.987095114778E+00  2.010940256155E+00  2.035071539229E+00  2.059492397700E+00
  2.084206306473E+00  2.109216782150E+00  2.134527383536E+00  2.160141712138E+00
  2.186063412684E+00  2.212296173636E+00  2.238843727720E+00  2.265709852453E+00
  2.292898370682E+00  2.320413151130E+00  2.348258108944E+00  2.376437206251E+00
  2.404954452726E+00  2.433813906159E+00  2.463019673033E+00  2.492575909109E+00
  2.522486820018E+00  2.552756661859E+00  2.583389741801E+00  2.614390418703E+00
  2.645763103727E+00  2.677512260972E+00  2.709642408103E+00  2.742158117001E+00
  2.775064014405E+00  2.808364782577E+00  2.842065159968E+00  2.876169941888E+00
  2.910683981191E+00  2.945612188965E+00  2.980959535233E+00  3.016731049655E+00
  3.052931822251E+00  3.089567004118E+00  3.126641808168E+00  3.164161509866E+00
  3.202131447984E+00  3.240557025360E+00  3.279443709664E+00  3.318797034180E+00
  3.358622598590E+00  3.398926069773E+00  3.439713182611E+00  3.480989740802E+00
  3.522761617692E+00  3.565034757104E+00  3.607815174189E+00  3.651108956279E+00
  3.694922263755E+00  3.739261330920E+00  3.784132466891E+00  3.829542056494E+00
  3.875496561171E+00  3.922002519905E+00  3.969066550144E+00  4.016695348746E+00
  4.064895692931E+00  4.113674441246E+00  4.163038534541E+00  4.212994996956E+00
  4.263550936919E+00  4.314713548162E+00  4.366490110740E+00  4.418887992069E+00
  4.471914647974E+00  4.525577623750E+00  4.579884555234E+00  4.634843169897E+00
  4.690461287936E+00  4.746746823391E+00  4.803707785272E+00  4.861352278695E+00
  4.919688506040E+00  4.978724768112E+00  5.038469465329E+00  5.098931098913E+00
  5.160118272100E+00  5.222039691366E+00  5.284704167662E+00  5.348120617674E+00
  5.412298065086E+00  5.477245641867E+00  5.542972589569E+00  5.609488260644E+00
  5.676802119772E+00  5.744923745209E+00  5.813862830152E+00  5.883629184114E+00
  5.954232734323E+00  6.025683527135E+00  6.097991729460E+00  6.171167630214E+00
  6.245221641777E+00  6.320164301478E+00  6.396006273096E+00  6.472758348373E+00
  6.550431448553E+00  6.629036625936E+00  6.708585065447E+00  6.789088086232E+00
  6.870557143267E+00  6.953003828986E+00  7.036439874934E+00  7.120877153433E+00
  7.206327679275E+00  7.292803611426E+00  7.380317254763E+00  7.468881061820E+00
  7.558507634562E+00  7.649209726177E+00  7.741000242891E+00  7.833892245806E+00
  7.927898952755E+00  8.023033740188E+00  8.119310145071E+00  8.216741866811E+00
  8.315342769213E+00  8.415126882444E+00  8.516108405033E+00  8.618301705893E+00
  8.721721326364E+00  8.826381982281E+00  8.932298566068E+00  9.039486148861E+00
  9.147959982647E+00  9.257735502439E+00  9.368828328468E+00  9.481254268410E+00
  9.595029319631E+00  9.710169671466E+00  9.826691707524E+00  9.944612008014E+00
  1.006394735211E+01  1.018471472034E+01  1.030693129698E+01  1.043061447254E+01
  1.055578184621E+01  1.068245122837E+01  1.081064064311E+01  1.094036833083E+01
  1.107165275080E+01  1.120451258381E+01  1.133896673481E+01  1.147503433563E+01
  1.161273474766E+01  1.175208756463E+01  1.189311261540E+01  1.203582996679E+01
  1.218025992639E+01  1.232642304551E+01  1.247434012205E+01  1.262403220352E+01
  1.277552058996E+01  1.292882683704E+01  1.308397275908E+01  1.324098043219E+01
  1.339987219738E+01  1.356067066375E+01  1.372339871171E+01  1.388807949625E+01
  1.405473645021E+01  1.422339328761E+01  1.439407400706E+01  1.456680289515E+01
  1.474160452989E+01  1.491850378425E+01  1.509752582966E+01  1.527869613961E+01
  1.546204049329E+01  1.564758497921E+01  1.583535599896E+01  1.602538027095E+01
  1.621768483420E+01  1.641229705221E+01  1.660924461684E+01  1.680855555224E+01
  1.701025821886E+01  1.721438131749E+01  1.742095389330E+01  1.763000534002E+01
  1.784156540410E+01  1.805566418895E+01  1.827233215922E+01  1.849160014513E+01
  1.871349934687E+01  1.893806133903E+01  1.916531807510E+01  1.939530189200E+01
  1.962804551471E+01  1.986358206088E+01  2.010194504561E+01  2.034316838616E+01
  2.058728640679E+01  2.083433384368E+01  2.108434584980E+01  2.133735800000E+01
  2.159340629600E+01  2.185252717155E+01  2.211475749761E+01  2.238013458758E+01
  2.264869620263E+01  2.292048055706E+01  2.319552632375E+01  2.347387263963E+01
  2.375555911131E+01  2.404062582064E+01  2.432911333049E+01  2.462106269046E+01
  2.491651544274E+01  2.521551362805E+01  2.551809979159E+01  2.582431698909E+01
  2.613420879296E+01  2.644781929847E+01  2.676519313006E+01  2.708637544762E+01
  2.741141195299E+01  2.774034889642E+01  2.807323308318E+01  2.841011188018E+01
  2.875103322274E+01  2.909604562141E+01  2.944519816887E+01  2.979854054690E+01
  3.015612303346E+01  3.051799650986E+01  3.088421246798E+01  3.125482301760E+01
  3.162988089381E+01  3.200943946453E+01  3.239355273811E+01  3.278227537096E+01
  3.317566267542E+01  3.357377062752E+01  3.397665587505E+01  3.438437574555E+01
  3.479698825450E+01  3.521455211355E+01  3.563712673892E+01  3.606477225978E+01
  3.649754952690E+01  3.693552012122E+01  3.737874636268E+01  3.782729131903E+01
  3.828121881486E+01  3.874059344064E+01  3.920548056192E+01  3.967594632867E+01
  4.015205768461E+01  4.063388237683E+01  4.112148896535E+01  4.161494683293E+01
  4.211432619493E+01  4.261969810927E+01  4.313113448658E+01  4.364870810042E+01
  4.417249259762E+01
</grid-data>
</grid>
<valence-charge total-charge="18" is-unscreening-charge="yes"
 rescaled-to-z-pseudo="no">
<radfunc>
<data npts="457">
  9.057224856014E-01  9.067677705490E-01  9.098934212924E-01  9.151112355223E-01
  9.223723424694E-01  9.319315358638E-01  9.441337124552E-01  9.581325432270E-01
  9.739062146610E-01  9.923455317844E-01  1.013187451823E+00  1.035910381988E+00
  1.063468362266E+00  1.092361794552E+00  1.126592495641E+00  1.160936016426E+00
  1.200677412829E+00  1.238539040665E+00  1.281323977772E+00  1.329687375636E+00
  1.384374719923E+00  1.433244371594E+00  1.487190528847E+00  1.546755191130E+00
  1.612540165153E+00  1.685213729531E+00  1.765517958335E+00  1.831246047336E+00
  1.902108504589E+00  1.978516683810E+00  2.060915049066E+00  2.149783569478E+00
  2.245640184515E+00  2.349043309297E+00  2.460594338099E+00  2.580940090443E+00
  2.710775127195E+00  2.850843843471E+00  2.950299277201E+00  3.054904554949E+00
  3.164919087630E+00  3.280612862096E+00  3.402266382423E+00  3.530170509455E+00
  3.664626180203E+00  3.805943986364E+00  3.954443588815E+00  4.110452942241E+00
  4.274307301322E+00  4.446347976956E+00  4.626920808026E+00  4.816374311150E+00
  5.015057467848E+00  5.223317105636E+00  5.441494826857E+00  5.669923436695E+00
  5.908922819926E+00  6.158795214823E+00  6.419819832315E+00  6.692246769443E+00
  6.976290168541E+00  7.272120577804E+00  7.579856475351E+00  7.899554928022E+00
  8.231201368373E+00  8.574698489258E+00  8.929854275350E+00  9.111715135092E+00
  9.296369215719E+00  9.483760061651E+00  9.673822771398E+00  9.866483542027E+00
  1.006165920735E+01  1.025925677149E+01  1.045917293966E+01  1.066129364820E+01
  1.086549359627E+01  1.107163578164E+01  1.127957104342E+01  1.148913761482E+01
  1.170016068925E+01  1.191245200341E+01  1.212580944117E+01  1.234001666254E+01
  1.255484276215E+01  1.277004196195E+01  1.298535334314E+01  1.320050062272E+01
  1.341519198008E+01  1.362911993944E+01  1.384196131406E+01  1.405337721856E+01
  1.426301315536E+01  1.447049918193E+01  1.467545016512E+01  1.487746612918E+01
  1.507613270376E+01  1.527102167838E+01  1.546169166924E+01  1.564768890438E+01
  1.582854813260E+01  1.600379366112E+01  1.617294052636E+01  1.633549580177E+01
  1.649096004544E+01  1.663882888977E+01  1.677859477408E+01  1.690974882007E+01
  1.703178284879E+01  1.714419153619E+01  1.724647470302E+01  1.733813973306E+01
  1.741870411193E+01  1.748769807703E+01  1.754466736699E+01  1.758917605728E+01
  1.762080946637E+01  1.763917711502E+01  1.764391571901E+01  1.763469219363E+01
  1.761120664656E+01  1.757319533358E+01  1.752043354998E+01  1.745273842914E+01
  1.736997161834E+01  1.727204180067E+01  1.715890703149E+01  1.703057685729E+01
  1.688711418484E+01  1.672863686885E+01  1.655531898760E+01  1.636739177673E+01
  1.616514419386E+01  1.594892308868E+01  1.571913295620E+01  1.547623525422E+01
  1.522074726988E+01  1.495324052488E+01  1.467433871316E+01  1.438471517069E+01
  1.408508988206E+01  1.377622603456E+01  1.345892613635E+01  1.313402772135E+01
  1.280239866943E+01  1.246493217659E+01  1.212254141525E+01  1.177615393019E+01
  1.142670582074E+01  1.107513576403E+01  1.072237893775E+01  1.036936090408E+01
  1.001699151853E+01  9.666158928607E+00  9.317723727880E+00  8.972513330165E+00
  8.631316627203E+00  8.294878990570E+00  7.963897675146E+00  7.639017677062E+00
  7.320828093825E+00  7.009859028342E+00  6.706579071922E+00  6.411393394828E+00
  6.124642467549E+00  5.846601429502E+00  5.577480111609E+00  5.317423710063E+00
  5.066514101770E+00  4.824771784819E+00  4.592158421098E+00  4.368581925776E+00
  4.153909951942E+00  3.947988156005E+00  3.750643671150E+00  3.561686985418E+00
  3.380914642674E+00  3.208111472395E+00  3.043052715373E+00  2.885506000772E+00
  2.735233176881E+00  2.591991997211E+00  2.455537664291E+00  2.325624234487E+00
  2.202005887981E+00  2.084438068764E+00  1.972678500025E+00  1.866488080827E+00
  1.765631670273E+00  1.669878765651E+00  1.579004081200E+00  1.492788034268E+00
  1.411017145410E+00  1.333484359537E+00  1.259989294328E+00  1.190338422306E+00
  1.124345193295E+00  1.061830102723E+00  1.002620711795E+00  9.465516249491E-01
  8.934644297529E-01  8.432076041037E-01  7.956363952644E-01  7.506126749595E-01
  7.080047744265E-01  6.676873030068E-01  6.295409535512E-01  5.934522976132E-01
  5.593135731130E-01  5.270224668815E-01  4.964818942235E-01  4.675997773957E-01
  4.402888246562E-01  4.144663113249E-01  3.900538640899E-01  3.669772496070E-01
  3.451661682659E-01  3.245540538410E-01  3.050778795982E-01  2.866779713036E-01
  2.692978274619E-01  2.528839470114E-01  2.373856646094E-01  2.227549935661E-01
  2.089464764120E-01  1.959170430292E-01  1.836258762224E-01  1.720342845693E-01
  1.611055823493E-01  1.508049763280E-01  1.410994591487E-01  1.319577090696E-01
  1.233499957716E-01  1.152480919550E-01  1.076251904398E-01  1.004558264839E-01
  9.371580503310E-02  8.738213262436E-02  8.143295366463E-02  7.584749081860E-02
  7.060598924364E-02  6.568966442041E-02  6.108065333630E-02  5.676196878863E-02
  5.271745658468E-02  4.893175542562E-02  4.539025927325E-02  4.207908200166E-02
  3.898502416289E-02  3.609554168620E-02  3.339871635477E-02  3.088322790922E-02
  2.853832763876E-02  2.635381333108E-02  2.432000546247E-02  2.242772452006E-02
  2.066826935760E-02  1.903339649638E-02  1.751530029184E-02  1.610659389564E-02
  1.480029095128E-02  1.358978796930E-02  1.246884733571E-02  1.143158091369E-02
  1.047243420517E-02  9.586171044160E-03  8.767858798745E-03  8.012854062673E-03
  7.316788821390E-03  6.675557080172E-03  6.085301944582E-03  5.542403145409E-03
  5.043465001721E-03  4.585304816730E-03  4.164941701774E-03  3.779585824109E-03
  3.426628074188E-03  3.103630147908E-03  2.808315038909E-03  2.538557935428E-03
  2.292377515534E-03  2.067927633829E-03  1.863489391875E-03  1.677463583836E-03
  1.508363507992E-03  1.354808134100E-03  1.215515615846E-03  1.089297137100E-03
  9.750510801713E-04  8.717575039052E-04  7.784729191958E-04  6.943253493859E-04
  6.185096629551E-04  5.502831659991E-04  4.889614422840E-04  4.339144287745E-04
  3.845627150008E-04  3.403740550389E-04  3.008600813022E-04  2.655732098512E-04
  2.341037274394E-04  2.060770510215E-04  1.811511509626E-04  1.590141296761E-04
  1.393819478851E-04  1.219962911457E-04  1.066225696749E-04  9.304804490287E-05
  8.108007650401E-05  7.054448397319E-05  6.128401708151E-05  5.315692979450E-05
  4.603565245314E-05  3.980555721436E-05  3.436381192535E-05  2.961831776764E-05
  2.548672615687E-05  2.189553052480E-05  1.877922874502E-05  1.607955209420E-05
  1.374475676983E-05  1.172897411382E-05  9.991615820800E-06  8.496830540921E-06
  7.213008420477E-06  6.112330259001E-06  5.170358099716E-06  4.365664210095E-06
  3.679495551053E-06  3.095470976051E-06  2.599308544656E-06  2.178580478189E-06
  1.822493427206E-06  1.521691861123E-06  1.268082528487E-06  1.054678071704E-06
  8.754580117695E-07  7.252454461991E-07  5.995979265330E-07  4.947110999809E-07
  4.073338127675E-07  3.346934802375E-07  2.744306306267E-07  2.245416254852E-07
  1.833286500245E-07  1.493561511386E-07  1.214129796100E-07  9.847956614457E-08
  7.969952854362E-08  6.435516968868E-08  5.184638330278E-08  4.167253687911E-08
  3.341694898654E-08  2.673362162451E-08  2.133592767119E-08  1.698698901488E-08
  1.349151294494E-08  1.068888306802E-08  8.447326663897E-09  6.659003252270E-09
  5.235879445688E-09  4.106273142429E-09  3.211965983119E-09  2.505796958880E-09
  1.949662307549E-09  1.512857545032E-09  1.170706815016E-09  9.034328530478E-10
  6.952278886718E-10  5.334918780162E-10  4.082096833654E-10  3.114432992813E-10
  2.369190597712E-10  1.796930311692E-10  1.358805751401E-10  1.024384215377E-10
  7.698958018105E-11  5.768309542044E-11  4.308205276427E-11  3.207442236627E-11
  2.380230433098E-11  1.760595520976E-11  1.297964707046E-11  9.437799774042E-12
  6.913589568369E-12  5.047068291387E-12  3.079860922359E-12  2.234483730118E-12
  1.615373201672E-12  1.163589331082E-12  8.351012349947E-13  5.971345252690E-13
  4.253826591730E-13  3.018857176465E-13  2.134228598956E-13  1.502986359746E-13
  1.054301399119E-13  7.366307085519E-14  5.126129225966E-14  3.552737494480E-14
  2.452163445806E-14  1.685493416890E-14  1.153650932948E-14  7.862661768964E-15
  5.335687735658E-15  3.605075889791E-15  2.425039930337E-15  1.623980673673E-15
  1.082622433034E-15  7.184289570934E-16  4.745450294023E-16  3.119849775835E-16
  2.041400220004E-16  1.329340145116E-16  8.614548838483E-17  5.555102373571E-17
  3.564421456326E-17  2.275608409870E-17  1.445410252923E-17  9.133628183014E-18
  5.741526490248E-18  3.590178830880E-18  2.232964878092E-18  1.381328299451E-18
  8.498316523351E-19  5.199496625047E-19  3.163393281862E-19  1.913723983848E-19
  1.151091951566E-19  6.883595840215E-20  4.092276750975E-20  2.418400384672E-20
  1.420606810506E-20  8.294125111033E-21  4.812673333471E-21  2.775166085522E-21
  1.590177205142E-21  9.053638643047E-22  0.000000000000E+00  0.000000000000E+00
  0.000000000000E+00  0.000000000000E+00  0.000000000000E+00  0.000000000000E+00
  0.000000000000E+00  0.000000000000E+00  0.000000000000E+00  0.000000000000E+00
  0.000000000000E+00  0.000000000000E+00  0.000000000000E+00  0.000000000000E+00
  0.000000000000E+00  0.000000000000E+00  0.000000000000E+00  0.000000000000E+00
  0.000000000000E+00
</data>
</radfunc>
</valence-charge>
<pseudocore-charge matching-radius="0.812232228567"
 number-of-continuous-derivatives="4">
<annotation model-charge-form="Teter function with specified parameters" />
<radfunc>
<data npts="275">
  9.247134434324E+01  9.246534130974E+01  9.244739626048E+01  9.241745787232E+01
  9.237583348488E+01  9.232110221188E+01  9.225134849088E+01  9.217147520718E+01
  9.208166718688E+01  9.197693805156E+01  9.185889193423E+01  9.173058575406E+01
  9.157552297602E+01  9.141357893048E+01  9.122254657878E+01  9.103177137499E+01
  9.081210115402E+01  9.060388982565E+01  9.036983538563E+01  9.010680646910E+01
  8.981131279108E+01  8.954894685587E+01  8.926113921856E+01  8.894551389265E+01
  8.859949211525E+01  8.822027912680E+01  8.780485101816E+01  8.746755858047E+01
  8.710659222765E+01  8.672039779320E+01  8.630733560301E+01  8.586567840688E+01
  8.539360974281E+01  8.488922283998E+01  8.435052018211E+01  8.377541386978E+01
  8.316172693934E+01  8.250719581609E+01  8.204699505892E+01  8.156688545022E+01
  8.106613791565E+01  8.054401000697E+01  7.999974716106E+01  7.943258416679E+01
  7.884174685837E+01  7.822645405461E+01  7.758591976445E+01  7.691935567989E+01
  7.622597397823E+01  7.550499045590E+01  7.475562801670E+01  7.397712053750E+01
  7.316871713407E+01  7.232968684970E+01  7.145932378821E+01  7.055695271198E+01
  6.962193512370E+01  6.865367584853E+01  6.765163013020E+01  6.661531125097E+01
  6.554429868080E+01  6.443824675551E+01  6.329689387724E+01  6.212007222264E+01
  6.090771793515E+01  5.965988176755E+01  5.837674012876E+01  5.772202204204E+01
  5.705860647549E+01  5.638655593853E+01  5.570594297449E+01  5.501685053322E+01
  5.431937234391E+01  5.361361328705E+01  5.289968976430E+01  5.217773006523E+01
  5.144787472937E+01  5.071027690244E+01  4.996510268504E+01  4.921253147223E+01
  4.845275628244E+01  4.768598407377E+01  4.691243604581E+01  4.613234792503E+01
  4.534597023162E+01  4.455356852549E+01  4.375542362933E+01  4.295183182611E+01
  4.214310502876E+01  4.132957091922E+01  4.051157305451E+01  3.968947093675E+01
  3.886364004467E+01  3.803447182350E+01  3.720237363053E+01  3.636776863330E+01
  3.553109565751E+01  3.469280898173E+01  3.385337807585E+01  3.301328728053E+01
  3.217303542464E+01  3.133313537795E+01  3.049411353642E+01  2.965650923749E+01
  2.882087410290E+01  2.798777130699E+01  2.715777476820E+01  2.633146826230E+01
  2.550944445566E+01  2.469230385746E+01  2.388065369017E+01  2.307510667768E+01
  2.227627975139E+01  2.148479267462E+01  2.070126658653E+01  1.992632246707E+01
  1.916057952536E+01  1.840465351427E+01  1.765915497494E+01  1.692468741548E+01
  1.620184542890E+01  1.549121275634E+01  1.479336030220E+01  1.410884410868E+01
  1.343820329833E+01  1.278195799374E+01  1.214060722466E+01  1.151462683347E+01
  1.090446739102E+01  1.031055213541E+01  9.733274947252E+00  9.172998375627E+00
  8.630051729565E+00  8.104729250517E+00  7.597288381731E+00  7.107948150846E+00
  6.636887682245E+00  6.184244855805E+00  5.750115128657E+00  5.334550536304E+00
  4.937558889033E+00  4.559103178951E+00  4.199101212105E+00  3.857425479096E+00
  3.533903276281E+00  3.228317088103E+00  2.940405239319E+00  2.669862823803E+00
  2.416342914378E+00  2.179458055558E+00  1.958782038391E+00  1.753851953606E+00
  1.564170516212E+00  1.389208651374E+00  1.228408328072E+00  1.081185623577E+00
  9.469339983311E-01  8.250277573885E-01  7.148256712515E-01  6.156747257389E-01
  5.269139675831E-01  4.478784097863E-01  3.779029584652E-01  3.163263210527E-01
  2.624948543683E-01  2.157663102827E-01  1.755134365467E-01  1.411273908901E-01
  1.120209277534E-01  8.763131903486E-02  6.742297302935E-02  5.088971930496E-02
  3.755673158465E-02  2.698206574232E-02  1.875779571667E-02  1.251073641502E-02
  7.902749414870E-03  4.630634349616E-03  2.425616138311E-03  1.052445525628E-03
  3.081375581249E-04  2.037944881864E-05  4.564558037776E-05  2.670629754826E-04
  5.920752357207E-04  9.499565470918E-04  1.289229721815E-03  1.575043273020E-03
  1.786562117794E-03  1.914424634517E-03  1.958315470258E-03  1.924698763095E-03
  1.824750426838E-03  1.672521009909E-03  1.483352606067E-03  1.272564628078E-03
  1.054414260854E-03  8.413284195714E-04  6.433953969917E-04  4.680964378444E-04
  3.202505541154E-04  2.021402862127E-04  1.137820618254E-04  5.330247989854E-05
  1.738134354423E-05  1.723584312223E-06  1.525266759229E-06  1.190344706224E-05
  2.826550400262E-05  4.660031028880E-05  6.368085470310E-05  7.717521536869E-05
  8.566967071654E-05  8.861379198790E-05  8.620221995638E-05  7.921120436319E-05
  6.880970134706E-05  5.636483129991E-05  4.325987928407E-05  3.073998405324E-05
  1.979653613627E-05  1.109650545851E-05  4.957913018060E-06  1.367928629882E-06
  3.606257597330E-08  4.719891635591E-07  2.075943574019E-06  4.229474143618E-06
  6.375556822663E-06  8.079480008472E-06  9.065147955620E-06  9.225098743175E-06
  8.606116717784E-06  7.375385893726E-06  5.774303291240E-06  4.068100514820E-06
  2.499221482405E-06  1.251063432985E-06  4.264604596443E-07  4.255427152147E-08
  0.000000000000E+00  0.000000000000E+00  0.000000000000E+00  0.000000000000E+00
  0.000000000000E+00  0.000000000000E+00  0.000000000000E+00  0.000000000000E+00
  0.000000000000E+00  0.000000000000E+00  0.000000000000E+00  0.000000000000E+00
  0.000000000000E+00  0.000000000000E+00  0.000000000000E+00  0.000000000000E+00
  0.000000000000E+00  0.000000000000E+00  0.000000000000E+00  0.000000000000E+00
  0.000000000000E+00  0.000000000000E+00  0.000000000000E+00  0.000000000000E+00
  0.000000000000E+00  0.000000000000E+00  0.000000000000E+00  0.000000000000E+00
  0.000000000000E+00  0.000000000000E+00  0.000000000000E+00  0.000000000000E+00
  0.000000000000E+00  0.000000000000E+00  0.000000000000E+00
</data>
</radfunc>
</pseudocore-charge>
<semilocal-potentials set="scalar_relativistic">
<slps n="5" l="s" rc="1.45722069575">
<radfunc>
<data npts="275">
  5.673828643941E+00  5.665500981284E+00  5.640627954892E+00  5.599201534097E+00
  5.541750268247E+00  5.466464652053E+00  5.370934291542E+00  5.262117968522E+00
  5.140491761068E+00  4.999617992958E+00  4.842057137230E+00  4.672257718868E+00
  4.469045393887E+00  4.259112921683E+00  4.014439578514E+00  3.773243030773E+00
  3.499333596919E+00  3.243409788166E+00  2.959924793020E+00  2.646535920641E+00
  2.300852479564E+00  1.999440331668E+00  1.674610938876E+00  1.325187814242E+00
  9.500527310907E-01  5.481710797677E-01  1.186200638708E-01 -2.221768444206E-01
 -5.792461851571E-01 -9.527902654846E-01 -1.342939430737E+00 -1.749743702284E+00
 -2.173164518305E+00 -2.613066740662E+00 -3.069211106216E+00 -3.541247312311E+00
 -4.028707932510E+00 -4.531003359012E+00 -4.873760408063E+00 -5.222551589235E+00
 -5.577107635988E+00 -5.937133706410E+00 -6.302309519317E+00 -6.672289644027E+00
 -7.046703946292E+00 -7.425158190918E+00 -7.807234799440E+00 -8.192493758982E+00
 -8.580473676175E+00 -8.970692967662E+00 -9.362651176508E+00 -9.755830401601E+00
 -1.014969682514E+01 -1.054370232142E+01 -1.093728612851E+01 -1.132987656303E+01
 -1.172089275733E+01 -1.210974639753E+01 -1.249584344053E+01 -1.287858578851E+01
 -1.325737289937E+01 -1.363160331294E+01 -1.400067607368E+01 -1.436399203245E+01
 -1.472095501183E+01 -1.507097282183E+01 -1.541345811545E+01 -1.558169401973E+01
 -1.574782907652E+01 -1.591179150761E+01 -1.607350993542E+01 -1.623291338969E+01
 -1.638993131150E+01 -1.654449355470E+01 -1.669653038487E+01 -1.684597247581E+01
 -1.699275090374E+01 -1.713679713930E+01 -1.727804303745E+01 -1.741642082550E+01
 -1.755186308936E+01 -1.768430275824E+01 -1.781367308801E+01 -1.793990764336E+01
 -1.806294027913E+01 -1.818270512095E+01 -1.829913654556E+01 -1.841216916097E+01
 -1.852173778695E+01 -1.862777743605E+01 -1.873022329554E+01 -1.882901071065E+01
 -1.892407516951E+01 -1.901535229022E+01 -1.910277781039E+01 -1.918628757975E+01
 -1.926581755615E+01 -1.934130380559E+01 -1.941268250665E+01 -1.947988995998E+01
 -1.954286260331E+01 -1.960153703252E+01 -1.965585002946E+01 -1.970573859696E+01
 -1.975114000174E+01 -1.979199182571E+01 -1.982823202639E+01 -1.985979900685E+01
 -1.988663169604E+01 -1.990866963972E+01 -1.992585310303E+01 -1.993812318470E+01
 -1.994542194400E+01 -1.994769254042E+01 -1.994487938698E+01 -1.993692831728E+01
 -1.992378676697E+01 -1.990540396988E+01 -1.988173116910E+01 -1.985272184355E+01
 -1.981833195007E+01 -1.977852018141E+01 -1.973324824032E+01 -1.968248112993E+01
 -1.962618746053E+01 -1.956433977304E+01 -1.949691487907E+01 -1.942389421799E+01
 -1.934526423085E+01 -1.926101675144E+01 -1.917114941456E+01 -1.907566608168E+01
 -1.897457728416E+01 -1.886790068429E+01 -1.875566155455E+01 -1.863789327559E+01
 -1.851463785359E+01 -1.838594645818E+01 -1.825187998212E+01 -1.811250962495E+01
 -1.796791750311E+01 -1.781819729036E+01 -1.766345489307E+01 -1.750380916705E+01
 -1.733939268372E+01 -1.717035255642E+01 -1.699685133979E+01 -1.681906801860E+01
 -1.663719910617E+01 -1.645145987659E+01 -1.626208575971E+01 -1.606933393322E+01
 -1.587348515149E+01 -1.567484585659E+01 -1.547375062279E+01 -1.527056499107E+01
 -1.506568875480E+01 -1.485955976096E+01 -1.465265829269E+01 -1.444551209681E+01
 -1.423870211437E+01 -1.403286896061E+01 -1.382872018507E+01 -1.362703832090E+01
 -1.342868968663E+01 -1.323463383656E+01 -1.304593351180E+01 -1.286376487397E+01