<?xml version="1.0" encoding="UTF-8" ?>
<psml version="1.1" energy_unit="hartree" length_unit="bohr"
 uuid="f1d13390-520a-11e8-6c22-82ccfdf91c2b"
 xmlns="http://esl.cecam.org/PSML/ns/1.1">
<provenance creator="ONCVPSP-3.3.0+psml-3.3.0-73 (fully-relativistic)"
 date="2018-05-07">
<annotation action="semilocal-pseudopotential-generation"
 action-cont="projectors-generation" />
<input-file name="oncvpsp-input">
<![CDATA[# atsym z nc nv iexc psfile
Lu 71 9 5 4 both
# n l f
1 0 2.0
2 0 2.0
2 1 6.0
3 0 2.0
3 1 6.0
3 2 10.0
4 0 2.0
4 1 6.0
4 2 10.0
5 0 2.0
5 1 6.0
4 3 14.0
5 2 1.0
6 0 2.0
# lmax
3
# l rc ep ncon nbas qcut
0 1.55 0.0 4 8 7.5
1 1.6 0.0 4 8 8.0
2 1.45 0.0 4 8 9.0
3 1.85 0.0 4 8 9.8
# lloc lpopt rc5 dvloc0
4 5 1.3 0
# l nproj debl
0 2 1.0
1 2 1.0
2 2 1.0
3 2 1.5
# icmod fcfact rcfact
3 4.0 1.4
# epsh1 epsh2 depsh
-12.0 12.0 0.02
# rlmax drl
6.0 0.01
 0
]]>
</input-file>
</provenance>
<pseudo-atom-spec atomic-label="Lu" atomic-number="71" z-pseudo="25"
 flavor="Hamann&apos;s oncvpsp" relativity="dirac" spin-dft="no"
 core-corrections="yes">
<annotation pseudo-energy="-233.900441198" />
<exchange-correlation>
<annotation oncvpsp-xc-code="4" oncvpsp-xc-type="GGA -- Perdew-Burke-Ernzerhof" />
<libxc-info number-of-functionals="2">
<functional name="Perdew, Burke &amp; Ernzerhof (GGA)" type="exchange" id="101" />
<functional name="Perdew, Burke &amp; Ernzerhof (GGA)" type="correlation"
 id="130" />
</libxc-info>
</exchange-correlation>
<valence-configuration total-valence-charge="25">
<shell n="5" l="s" occupation="2" />
<shell n="5" l="p" occupation="6" />
<shell n="4" l="f" occupation="14" />
<shell n="5" l="d" occupation="1" />
<shell n="6" l="s" occupation="2" />
</valence-configuration>
</pseudo-atom-spec>
<grid npts="457">
<annotation type="sampled from oncvpsp log grid"
 recipe="r(i:1..N) = r1*exp(a*(i-1)) + r=0; resampled"
 recipe-cont="r1: scale; a: step" scale="0.704225352113E-05"
 step="0.119285708653E-01" delta="0.500000000000E-02" rmax="44.1107112591" />
<grid-data>
  0.000000000000E+00  5.037024290493E-03  1.006106072879E-02  1.509319543437E-02
  2.009617924206E-02  2.520828110912E-02  3.050924308962E-02  3.562690500806E-02
  4.110969416506E-02  4.631795440764E-02  5.156725138349E-02  5.673069230746E-02
  6.241114977700E-02  6.784623792449E-02  7.288008089934E-02  7.828740921208E-02
  8.409593355974E-02  8.926424963538E-02  9.475019689634E-02  1.005732961243E-01
  1.067542677972E-01  1.119714484380E-01  1.174435975630E-01  1.231831757198E-01
  1.292032524146E-01  1.355175358726E-01  1.421404042528E-01  1.473191090791E-01
  1.526864934285E-01  1.582494315994E-01  1.640150483464E-01  1.699907280058E-01
  1.761841239525E-01  1.826031684025E-01  1.892560825720E-01  1.961513872068E-01
  2.032979134951E-01  2.107048143783E-01  2.157920714167E-01  2.210021551890E-01
  2.263380312238E-01  2.318027366497E-01  2.373993819234E-01  2.431311526005E-01
  2.490013111489E-01  2.550131988053E-01  2.611702374773E-01  2.674759316909E-01
  2.739338705856E-01  2.805477299571E-01  2.873212743492E-01  2.942583591970E-01
  3.013629330215E-01  3.086390396764E-01  3.160908206503E-01  3.237225174241E-01
  3.315384738848E-01  3.395431387982E-01  3.477410683414E-01  3.561369286954E-01
  3.647354987019E-01  3.735416725825E-01  3.825604627253E-01  3.917970025374E-01
  4.012565493666E-01  4.109444874946E-01  4.208663312006E-01  4.259167271750E-01
  4.310277279011E-01  4.362000606359E-01  4.414344613636E-01  4.467316748999E-01
  4.520924549987E-01  4.575175644587E-01  4.630077752322E-01  4.685638685350E-01
  4.741866349574E-01  4.798768745769E-01  4.856353970718E-01  4.914630218367E-01
  4.973605780987E-01  5.033289050359E-01  5.093688518964E-01  5.154812781191E-01
  5.216670534565E-01  5.279270580980E-01  5.342621827952E-01  5.406733289887E-01
  5.471614089366E-01  5.537273458439E-01  5.603720739940E-01  5.670965388819E-01
  5.739016973485E-01  5.807885177167E-01  5.877579799293E-01  5.948110756884E-01
  6.019488085967E-01  6.091721942998E-01  6.164822606314E-01  6.238800477590E-01
  6.313666083321E-01  6.389430076321E-01  6.466103237237E-01  6.543696476084E-01
  6.622220833797E-01  6.701687483802E-01  6.782107733608E-01  6.863493026411E-01
  6.945854942728E-01  7.029205202041E-01  7.113555664465E-01  7.198918332439E-01
  7.285305352428E-01  7.372729016657E-01  7.461201764857E-01  7.550736186036E-01
  7.641345020268E-01  7.733041160511E-01  7.825837654437E-01  7.919747706291E-01
  8.014784678766E-01  8.110962094911E-01  8.208293640050E-01  8.306793163731E-01
  8.406474681696E-01  8.507352377876E-01  8.609440606411E-01  8.712753893687E-01
  8.817306940412E-01  8.923114623697E-01  9.030191999181E-01  9.138554303171E-01
  9.248216954809E-01  9.359195558267E-01  9.471505904966E-01  9.585163975826E-01
  9.700185943536E-01  9.816588174858E-01  9.934387232956E-01  1.005359987975E+00
  1.017424307831E+00  1.029633399525E+00  1.041989000319E+00  1.054492868323E+00
  1.067146782743E+00  1.079952544136E+00  1.092911974665E+00  1.106026918361E+00
  1.119299241382E+00  1.132730832278E+00  1.146323602266E+00  1.160079485493E+00
  1.174000439319E+00  1.188088444591E+00  1.202345505926E+00  1.216773651997E+00
  1.231374935821E+00  1.246151435051E+00  1.261105252271E+00  1.276238515298E+00
  1.291553377482E+00  1.307052018012E+00  1.322736642228E+00  1.338609481935E+00
  1.354672795718E+00  1.370928869267E+00  1.387380015698E+00  1.404028575886E+00
  1.420876918797E+00  1.437927441822E+00  1.455182571124E+00  1.472644761978E+00
  1.490316499121E+00  1.508200297111E+00  1.526298700676E+00  1.544614285084E+00
  1.563149656505E+00  1.581907452383E+00  1.600890341812E+00  1.620101025914E+00
  1.639542238225E+00  1.659216745083E+00  1.679127346024E+00  1.699276874177E+00
  1.719668196667E+00  1.740304215027E+00  1.761187865607E+00  1.782322119994E+00
  1.803709985434E+00  1.825354505260E+00  1.847258759323E+00  1.869425864434E+00
  1.891858974808E+00  1.914561282505E+00  1.937536017895E+00  1.960786450110E+00
  1.984315887512E+00  2.008127678162E+00  2.032225210300E+00  2.056611912823E+00
  2.081291255777E+00  2.106266750846E+00  2.131541951857E+00  2.157120455279E+00
  2.183005900742E+00  2.209201971551E+00  2.235712395210E+00  2.262540943952E+00
  2.289691435280E+00  2.317167732503E+00  2.344973745293E+00  2.373113430237E+00
  2.401590791399E+00  2.430409880896E+00  2.459574799467E+00  2.489089697061E+00
  2.518958773425E+00  2.549186278706E+00  2.579776514051E+00  2.610733832219E+00
  2.642062638206E+00  2.673767389865E+00  2.705852598543E+00  2.738322829725E+00
  2.771182703682E+00  2.804436896126E+00  2.838090138880E+00  2.872147220546E+00
  2.906612987193E+00  2.941492343039E+00  2.976790251156E+00  3.012511734170E+00
  3.048661874980E+00  3.085245817479E+00  3.122268767289E+00  3.159735992497E+00
  3.197652824407E+00  3.236024658300E+00  3.274856954199E+00  3.314155237649E+00
  3.353925100501E+00  3.394172201707E+00  3.434902268128E+00  3.476121095345E+00
  3.517834548489E+00  3.560048563071E+00  3.602769145828E+00  3.646002375578E+00
  3.689754404085E+00  3.734031456934E+00  3.778839834417E+00  3.824185912430E+00
  3.870076143379E+00  3.916517057100E+00  3.963515261785E+00  4.011077444927E+00
  4.059210374266E+00  4.107920898757E+00  4.157215949542E+00  4.207102540937E+00
  4.257587771428E+00  4.308678824685E+00  4.360382970581E+00  4.412707566228E+00
  4.465660057023E+00  4.519247977707E+00  4.573478953440E+00  4.628360700881E+00
  4.683901029291E+00  4.740107841643E+00  4.796989135743E+00  4.854553005372E+00
  4.912807641436E+00  4.971761333133E+00  5.031422469131E+00  5.091799538760E+00
  5.152901133226E+00  5.214735946824E+00  5.277312778186E+00  5.340640531524E+00
  5.404728217903E+00  5.469584956518E+00  5.535219975996E+00  5.601642615708E+00
  5.668862327096E+00  5.736888675021E+00  5.805731339122E+00  5.875400115191E+00
  5.945904916573E+00  6.017255775572E+00  6.089462844879E+00  6.162536399018E+00
  6.236486835806E+00  6.311324677836E+00  6.387060573970E+00  6.463705300857E+00
  6.541269764467E+00  6.619765001641E+00  6.699202181661E+00  6.779592607841E+00
  6.860947719135E+00  6.943279091764E+00  7.026598440866E+00  7.110917622156E+00
  7.196248633622E+00  7.282603617225E+00  7.369994860632E+00  7.458434798960E+00
  7.547936016547E+00  7.638511248746E+00  7.730173383731E+00  7.822935464335E+00
  7.916810689907E+00  8.011812418186E+00  8.107954167205E+00  8.205249617211E+00
  8.303712612617E+00  8.403357163969E+00  8.504197449937E+00  8.606247819336E+00
  8.709522793168E+00  8.814037066686E+00  8.919805511486E+00  9.026843177624E+00
  9.135165295755E+00  9.244787279304E+00  9.355724726656E+00  9.467993423376E+00
  9.581609344456E+00  9.696588656590E+00  9.812947720469E+00  9.930703093115E+00
  1.004987153023E+01  1.017046998859E+01  1.029251562846E+01  1.041602581600E+01
  1.054101812579E+01  1.066751034330E+01  1.079552046742E+01  1.092506671303E+01
  1.105616751359E+01  1.118884152375E+01  1.132310762203E+01  1.145898491350E+01
  1.159649273246E+01  1.173565064525E+01  1.187647845299E+01  1.201899619443E+01
  1.216322414876E+01  1.230918283855E+01  1.245689303261E+01  1.260637574900E+01
  1.275765225799E+01  1.291074408508E+01  1.306567301411E+01  1.322246109028E+01
  1.338113062336E+01  1.354170419084E+01  1.370420464113E+01  1.386865509682E+01
  1.403507895798E+01  1.420349990548E+01  1.437394190435E+01  1.454642920720E+01
  1.472098635768E+01  1.489763819398E+01  1.507640985230E+01  1.525732677053E+01
  1.544041469178E+01  1.562569966808E+01  1.581320806410E+01  1.600296656087E+01
  1.619500215960E+01  1.638934218551E+01  1.658601429174E+01  1.678504646324E+01
  1.698646702080E+01  1.719030462505E+01  1.739658828055E+01  1.760534733991E+01
  1.781661150799E+01  1.803041084609E+01  1.824677577624E+01  1.846573708556E+01
  1.868732593058E+01  1.891157384175E+01  1.913851272785E+01  1.936817488059E+01
  1.960059297915E+01  1.983580009490E+01  2.007382969604E+01  2.031471565239E+01
  2.055849224022E+01  2.080519414711E+01  2.105485647687E+01  2.130751475459E+01
  2.156320493165E+01  2.182196339083E+01  2.208382695152E+01  2.234883287494E+01
  2.261701886944E+01  2.288842309587E+01  2.316308417302E+01  2.344104118309E+01
  2.372233367729E+01  2.400700168142E+01  2.429508570160E+01  2.458662673002E+01
  2.488166625078E+01  2.518024624579E+01  2.548240920073E+01  2.578819811114E+01
  2.609765648848E+01  2.641082836634E+01  2.672775830674E+01  2.704849140642E+01
  2.737307330329E+01  2.770155018293E+01  2.803396878513E+01  2.837037641055E+01
  2.871082092748E+01  2.905535077861E+01  2.940401498795E+01  2.975686316780E+01
  3.011394552582E+01  3.047531287213E+01  3.084101662659E+01  3.121110882611E+01
  3.158564213203E+01  3.196466983761E+01  3.234824587566E+01  3.273642482617E+01
  3.312926192408E+01  3.352681306717E+01  3.392913482398E+01  3.433628444187E+01
  3.474831985517E+01  3.516529969343E+01  3.558728328975E+01  3.601433068923E+01
  3.644650265750E+01  3.688386068939E+01  3.732646701766E+01  3.777438462187E+01
  3.822767723734E+01  3.868640936418E+01  3.915064627655E+01  3.962045403187E+01
  4.009589948026E+01  4.057705027402E+01  4.106397487731E+01  4.155674257583E+01
  4.205542348674E+01  4.256008856859E+01  4.307080963141E+01  4.358765934699E+01
  4.411071125915E+01
</grid-data>
</grid>
<valence-charge total-charge="25" is-unscreening-charge="yes"
 rescaled-to-z-pseudo="no">
<radfunc>
<data npts="457">
  5.523158255175E-02  5.544191268162E-02  5.607103844274E-02  5.712191160875E-02
  5.858568601947E-02  6.051530148314E-02  6.298292419634E-02  6.582052133232E-02
  6.936326788433E-02  7.321788527344E-02  7.759462033420E-02  8.239241656888E-02
  8.825076253976E-02  9.444376969643E-02  1.007114626319E-01  1.080378750466E-01
  1.166258896172E-01  1.249261495376E-01  1.344553214026E-01  1.454318735813E-01
  1.581248531029E-01  1.697371760351E-01  1.828699236075E-01  1.977757519234E-01
  2.147611566098E-01  2.341999172159E-01  2.565500839986E-01  2.755577572838E-01
  2.968028570759E-01  3.206203586714E-01  3.474040912169E-01  3.776176488327E-01
  4.118072548915E-01  4.506168830103E-01  4.948059680153E-01  5.452700660120E-01
  6.030648413353E-01  6.694337648768E-01  7.191555302602E-01  7.738280557559E-01
  8.340020891792E-01  9.002897948372E-01  9.733708785503E-01  1.053999133976E+00
  1.143009394883E+00  1.241324864684E+00  1.349964778010E+00  1.470052329032E+00
  1.602822776963E+00  1.749631610322E+00  1.911962617539E+00  2.091435671822E+00
  2.289813992475E+00  2.509010592745E+00  2.751093565472E+00  3.018289792472E+00
  3.312986591811E+00  3.637730739764E+00  3.995224222215E+00  4.388315985498E+00
  4.819988871442E+00  5.293340839191E+00  5.811559501460E+00  6.377888940949E+00
  6.995587730468E+00  7.667877066352E+00  8.397877948864E+00  8.785449995389E+00
  9.188536416811E+00  9.607463765250E+00  1.004253597949E+01  1.049403090576E+01
  1.096219660133E+01  1.144724742215E+01  1.194935989794E+01  1.246866840024E+01
  1.300526061174E+01  1.355917280793E+01  1.413038496514E+01  1.471881571280E+01
  1.532431715107E+01  1.594666955914E+01  1.658557602383E+01  1.724065702254E+01
  1.791144499924E+01  1.859737897737E+01  1.929779925853E+01  2.001194226098E+01
  2.073893555758E+01  2.147779317778E+01  2.222741124391E+01  2.298656401686E+01
  2.375390043127E+01  2.452794120484E+01  2.530707661043E+01  2.608956500305E+01
  2.687353219665E+01  2.765697178721E+01  2.843774651969E+01  2.921359079554E+01
  2.998211441609E+01  3.074080765312E+01  3.148704773325E+01  3.221810681535E+01
  3.293116153109E+01  3.362330414744E+01  3.429155539613E+01  3.493287899894E+01
  3.554419789907E+01  3.612241218762E+01  3.666441869081E+01  3.716713215706E+01
  3.762750795528E+01  3.804256616499E+01  3.840941690698E+01  3.872528672979E+01
  3.898754583277E+01  3.919373587190E+01  3.934159806026E+01  3.942910124127E+01
  3.945446958173E+01  3.941620950264E+01  3.931313544076E+01  3.914439401352E+01
  3.890948614539E+01  3.860828670573E+01  3.824106120849E+01  3.780847913270E+01
  3.731162344105E+01  3.675199590304E+01  3.613151786823E+01  3.545252618678E+01
  3.471776403614E+01  3.393036648632E+01  3.309384071999E+01  3.221204091647E+01
  3.128913791057E+01  3.032958384430E+01  2.933807214155E+01  2.831949324901E+01
  2.727888669835E+01  2.622139015185E+01  2.515218619277E+01  2.407644770882E+01
  2.299928278926E+01  2.192568010910E+01  2.086045580521E+01  1.980820285551E+01
  1.877324395207E+01  1.775958881045E+01  1.677089678003E+01  1.581044551518E+01
  1.488110633476E+01  1.398532674251E+01  1.312512040568E+01  1.230206469993E+01
  1.151730573086E+01  1.077157054322E+01  1.006518603532E+01  9.398103916613E+00
  8.769930886698E+00  8.179963083281E+00  7.627223748399E+00  7.110503003088E+00
  6.628398602573E+00  6.179356568263E+00  5.761710658071E+00  5.373719739938E+00
  5.013602269909E+00  4.679567238461E+00  4.369841128682E+00  4.082690562821E+00
  3.816440373646E+00  3.569487289158E+00  3.340309996867E+00  3.127475795742E+00
  2.929643979729E+00  2.745566937764E+00  2.574090173787E+00  2.414152012581E+00
  2.264782938260E+00  2.125105759054E+00  1.994330581687E+00  1.871747733635E+00
  1.756722074221E+00  1.648687055877E+00  1.547139141866E+00  1.451632542255E+00
  1.361774257554E+00  1.277219384338E+00  1.197666619411E+00  1.122853898577E+00
  1.052552184392E+00  9.865519629912E-01  9.246478027179E-01  8.666365717898E-01
  8.123203638184E-01  7.615057791510E-01  7.140044945693E-01  6.696335785577E-01
  6.282157756274E-01  5.895797428938E-01  5.535602405064E-01  5.199982780764E-01
  4.887412193771E-01  4.596428477453E-01  4.325633947306E-01  4.073695346404E-01
  3.839343477049E-01  3.621372546468E-01  3.418639254793E-01  3.230061653769E-01
  3.054617804785E-01  2.891344263960E-01  2.739334422444E-01  2.597736728241E-01
  2.465752814883E-01  2.342635560432E-01  2.227687098006E-01  2.120256796472E-01
  2.019739227082E-01  1.925572128998E-01  1.837234383823E-01  1.754244006883E-01
  1.676156160976E-01  1.602561196906E-01  1.533082724254E-01  1.467375715479E-01
  1.405124646453E-01  1.346041676801E-01  1.289864873702E-01  1.236356483111E-01
  1.185301252593E-01  1.136504809512E-01  1.089792098604E-01  1.045005882135E-01
  1.002005305407E-01  9.606645297207E-02  9.208714342371E-02  8.825263874642E-02
  8.455410885076E-02  8.098374776139E-02  7.753467150753E-02  7.420082270504E-02
  7.097688166329E-02  6.785818381109E-02  6.484064321860E-02  6.192068197553E-02
  5.909516517400E-02  5.636134123751E-02  5.371678733362E-02  5.115935960714E-02
  4.868714797288E-02  4.629843521069E-02  4.399166011228E-02  4.176538443646E-02
  3.961826343916E-02  3.754901975444E-02  3.555642041395E-02  3.363925680350E-02
  3.179632736691E-02  3.002642287831E-02  2.832831411408E-02  2.670074176485E-02
  2.514240843542E-02  2.365197258625E-02  2.222804427446E-02  2.086918255412E-02
  1.957389440294E-02  1.834063501857E-02  1.716780936869E-02  1.605377483850E-02
  1.499684483723E-02  1.399529322108E-02  1.304735939110E-02  1.215125392664E-02
  1.130516461889E-02  1.050726277476E-02  9.755709668632E-03  9.048663028088E-03
  8.384283450334E-03  7.760740656662E-03  7.176219504474E-03  6.628925688424E-03
  6.117091074564E-03  5.638978623309E-03  5.192886868603E-03  4.777153931396E-03
  4.390161055490E-03  4.030335662718E-03  3.696153932303E-03  3.386142915968E-03
  3.098882206117E-03  2.833005178976E-03  2.587199838227E-03  2.360209287359E-03
  2.150831860786E-03  1.957920944849E-03  1.780384520188E-03  1.617184456950E-03
  1.467335592923E-03  1.329904625807E-03  1.204008842743E-03  1.088814733911E-03
  9.835364035764E-04  8.874343501436E-04  7.998128653002E-04  7.200188705702E-04
  6.474452343587E-04  5.815148444495E-04  5.216915040279E-04  4.674781123853E-04
  4.184100296170E-04  3.740543925099E-04  3.340090316224E-04  2.979007936355E-04
  2.653839486161E-04  2.361386418543E-04  2.098693932233E-04  1.863036460929E-04
  1.651903673179E-04  1.462986993836E-04  1.294166654349E-04  1.143499276083E-04
  1.009205988339E-04  8.896610805755E-05  7.833811864038E-05  6.890149952516E-05
  6.053334860193E-05  5.312206756161E-05  4.656648738931E-05  4.077504351937E-05
  3.566499955060E-05  3.116171830328E-05  2.719797888985E-05  2.371333836966E-05
  2.065353646655E-05  1.796994174651E-05  1.561903758319E-05  1.356194618163E-05
  1.176398888658E-05  1.019428097049E-05  8.825359078777E-06  7.632839505133E-06
  6.595105477527E-06  5.693021655001E-06  4.909674065933E-06  4.230133758690E-06
  3.641242484645E-06  3.131418790101E-06  2.690482956564E-06  2.309499296832E-06
  1.980634386312E-06  1.697029883738E-06  1.452688672047E-06  1.242373127484E-06
  1.061514402298E-06  9.061316828706E-07  7.727604600113E-07  6.583889210691E-07
  5.604016437923E-07  4.765298392831E-07  4.048074555666E-07  3.435325140444E-07
  2.912331082955E-07  2.466375482367E-07  2.086481825534E-07  1.763184785869E-07
  1.488329815884E-07  1.254898145333E-07  1.056854156533E-07  8.890124365763E-08
  7.469221042921E-08  6.267662798879E-08  5.252748089436E-08  4.396485717528E-08
  3.674939057424E-08  3.067658446629E-08  2.557190351919E-08  2.128653312173E-08
  1.769371899670E-08  1.468561038374E-08  1.217053986662E-08  1.007068145916E-08
  8.320036077734E-09  6.862700124890E-09  5.651378691886E-09  4.646109948804E-09
  3.813171713795E-09  3.124145052719E-09  2.555113124624E-09  2.085976417432E-09
  1.699868065503E-09  1.382655154127E-09  1.122513837522E-09  9.095677638128E-10
  7.355807454773E-10  5.936958655337E-10  4.782142935230E-10  3.844080231295E-10
  3.083615542637E-10  2.468382433905E-10  1.971676514015E-10  1.571507410526E-10
  1.249802273649E-10  9.917377226947E-11  7.851805172645E-11  6.202201010408E-11
  4.887786607321E-11  3.842864713565E-11  3.014121313077E-11  2.358388614934E-11
  1.840793884700E-11  1.433230827389E-11  1.113100069382E-11  8.622736773429E-12
  6.662457987310E-12  5.134375863891E-12  3.946297269960E-12  3.025002620997E-12
  2.312490918856E-12  1.762937064481E-12  1.340230030846E-12  9.043049133445E-13
  6.852800114288E-13  5.177916692182E-13  3.900841222597E-13  2.929944132619E-13
  2.194011493637E-13  1.637858197577E-13  1.218846733834E-13  9.041353159466E-14
  6.684970291005E-14  2.191247712777E-18  1.335986773576E-18  8.099498041627E-19
  4.882360363024E-19  2.926088783684E-19  1.743415532796E-19  1.032617553002E-19
  6.079562734093E-20  3.557690211759E-20  2.069165236457E-20  1.195973095532E-20
  6.869330026096E-21  3.920497999558E-21  2.223149753145E-21  1.252457958746E-21
  7.009555125670E-22  3.896871319897E-22  2.151815094907E-22  1.180107107182E-22
  6.427321361151E-23  0.000000000000E+00  0.000000000000E+00  0.000000000000E+00
  0.000000000000E+00
</data>
</radfunc>
</valence-charge>
<pseudocore-charge matching-radius="0.702920520204"
 number-of-continuous-derivatives="4">
<annotation model-charge-form="Teter function with specified parameters" />
<radfunc>
<data npts="290">
  1.574837057153E+02  1.574706706577E+02  1.574317058662E+02  1.573667038021E+02
  1.572763381722E+02  1.571575337428E+02  1.570061465827E+02  1.568328330494E+02
  1.566176429396E+02  1.563850597592E+02  1.561229930744E+02  1.558382580904E+02
  1.554942975744E+02  1.551352511543E+02  1.547767618575E+02  1.543640669470E+02
  1.538891409681E+02  1.534392624221E+02  1.529338633674E+02  1.523663018881E+02
  1.517291979096E+02  1.511639726568E+02  1.505444287973E+02  1.498655963707E+02
  1.491221031386E+02  1.483081533018E+02  1.474175077404E+02  1.466951793578E+02
  1.459229494249E+02  1.450976638707E+02  1.442160143831E+02  1.432745381725E+02
  1.422696191980E+02  1.411974911373E+02  1.400542424192E+02  1.388358236712E+02
  1.375380579795E+02  1.361566543971E+02  1.351870897596E+02  1.341770844886E+02
  1.331253072724E+02  1.320304189773E+02  1.308910769405E+02  1.297059397926E+02
  1.284736728488E+02  1.271929541069E+02  1.258624808920E+02  1.244809771862E+02
  1.230472016815E+02  1.215599565932E+02  1.200180972680E+02  1.184205426193E+02
  1.167662864161E+02  1.150544094500E+02  1.132840925947E+02  1.114546307679E+02
  1.095654477931E+02  1.076161121493E+02  1.056063535822E+02  1.035360805360E+02
  1.014053983445E+02  9.921462810347E+01  9.696432611950E+01  9.465530380605E+01
  9.228864786946E+01  8.986574059421E+01  8.738828000365E+01  8.612971406129E+01
  8.485829963447E+01  8.357434647183E+01  8.227818762417E+01  8.097017997885E+01
  7.965070476895E+01  7.832016805376E+01  7.697900116690E+01  7.562766112850E+01
  7.426663101728E+01  7.289642029857E+01  7.151756510397E+01  7.013062845822E+01
  6.873620044876E+01  6.733489833350E+01  6.592736658156E+01  6.451427684268E+01
  6.309632783998E+01  6.167424518119E+01  6.024878108335E+01  5.882071400588E+01
  5.739084818712E+01  5.596001307924E+01  5.452906267681E+01  5.309887473423E+01
  5.167034986754E+01  5.024441053616E+01  4.882199990063E+01  4.740408055264E+01
  4.599163311382E+01  4.458565470059E+01  4.318715725248E+01  4.179716572219E+01
  4.041671612613E+01  3.904685345483E+01  3.768862944362E+01  3.634310020452E+01
  3.501132372146E+01  3.369435721171E+01  3.239325435765E+01  3.110906241397E+01
  2.984281919670E+01  2.859554996175E+01  2.736826418172E+01  2.616195223147E+01
  2.497758199399E+01  2.381609539990E+01  2.267840491500E+01  2.156538999216E+01
  2.047789350501E+01  1.941671818261E+01  1.838262306545E+01  1.737632000483E+01
  1.639847022860E+01  1.544968099794E+01  1.453050238034E+01  1.364142416562E+01
  1.278287295193E+01  1.195520942980E+01  1.115872589231E+01  1.039364399993E+01
  9.660112827990E+00  8.958207224771E+00  8.287926507056E+00  7.649193519028E+00
  7.041854078863E+00  6.465676835454E+00  5.920353555418E+00  5.405499857815E+00
  4.920656410868E+00  4.465290601430E+00  4.038798683954E+00  3.640508411410E+00
  3.269682145798E+00  2.925520440922E+00  2.607166084660E+00  2.313708582442E+00
  2.044189057808E+00  1.797605540129E+00  1.572918603598E+00  1.369057315867E+00
  1.184925449004E+00  1.019407900136E+00  8.713772641666E-01  7.397004965427E-01
  6.232456002536E-01  5.208882682198E-01  4.315184100929E-01  3.540464913374E-01
  2.874096124146E-01  2.305772570164E-01  1.825566406776E-01  1.423975947761E-01
  1.091969259321E-01  8.210219713304E-02  6.031488450834E-02  4.309287247221E-02
  2.975225984558E-02  1.966846040339E-02  1.227659289020E-02  7.071167682477E-03
  3.605089695444E-03  1.488009552774E-03  3.840671507754E-04  9.083233250795E-06
  1.272651181500E-04  5.475019564867E-04  1.119332545651E-03  1.728674478329E-03
  2.293407039313E-03  2.758901572338E-03  3.093591898474E-03  3.284673722282E-03
  3.334015841001E-03  3.254357494416E-03  3.065855570354E-03  2.793032916014E-03
  2.462165088431E-03  2.099127974375E-03  1.727713349293E-03  1.368404197836E-03
  1.037587076120E-03  7.471655426837E-04  5.045272702959E-04  3.128083584404E-04
  1.713919872373E-04  7.657515835227E-05  2.233698659608E-05  1.144810159197E-06
  4.740086972898E-06  2.485428758368E-05  5.381528103257E-05  8.501641473733E-05
  1.132328965271E-04  1.347824325160E-04  1.475385946150E-04  1.508153752302E-04
  1.451492280833E-04  1.320101396950E-04  1.134756637635E-04  9.190133544766E-05
  6.961764598946E-05  4.867819904022E-05  3.067637588393E-05  1.663953606738E-05
  7.001279628598E-06  1.644408691690E-06  6.880643183966E-10  1.188907708959E-06
  4.170475915401E-06  7.901949475707E-06  1.146639542810E-05  1.416988057183E-05
  1.559508912929E-05  1.561032206625E-05  1.433812846610E-05  1.209280438230E-05
  9.299360382553E-06  6.407928754334E-06  3.816862350898E-06  1.815175656421E-06
  5.509719674081E-07  2.776654400281E-08  0.000000000000E+00  0.000000000000E+00
  0.000000000000E+00  0.000000000000E+00  0.000000000000E+00  0.000000000000E+00
  0.000000000000E+00  0.000000000000E+00  0.000000000000E+00  0.000000000000E+00
  0.000000000000E+00  0.000000000000E+00  0.000000000000E+00  0.000000000000E+00
  0.000000000000E+00  0.000000000000E+00  0.000000000000E+00  0.000000000000E+00
  0.000000000000E+00  0.000000000000E+00  0.000000000000E+00  0.000000000000E+00
  0.000000000000E+00  0.000000000000E+00  0.000000000000E+00  0.000000000000E+00
  0.000000000000E+00  0.000000000000E+00  0.000000000000E+00  0.000000000000E+00
  0.000000000000E+00  0.000000000000E+00  0.000000000000E+00  0.000000000000E+00
  0.000000000000E+00  0.000000000000E+00  0.000000000000E+00  0.000000000000E+00
  0.000000000000E+00  0.000000000000E+00  0.000000000000E+00  0.000000000000E+00
  0.000000000000E+00  0.000000000000E+00  0.000000000000E+00  0.000000000000E+00
  0.000000000000E+00  0.000000000000E+00  0.000000000000E+00  0.000000000000E+00
  0.000000000000E+00  0.000000000000E+00  0.000000000000E+00  0.000000000000E+00
  0.000000000000E+00  0.000000000000E+00  0.000000000000E+00  0.000000000000E+00
  0.000000000000E+00  0.000000000000E+00
</data>
</radfunc>
</pseudocore-charge>
<semilocal-potentials set="scalar_relativistic">
<slps n="5" l="s" rc="1.56314965651">
<radfunc>
<data npts="290">
  4.653813876942E+01  4.648896324446E+01  4.634230713420E+01  4.609878535853E+01
  4.576257720401E+01  4.532464425028E+01  4.477321948438E+01  4.415085133034E+01
  4.339105143328E+01  4.258553928788E+01  4.169687127106E+01  4.075335975221E+01
  3.964306374345E+01  3.851708801811E+01  3.742507761124E+01  3.620603845772E+01
  3.485119991357E+01  3.361280239138E+01  3.227099383265E+01  3.082302143862E+01
  2.926730614253E+01  2.794498552618E+01  2.655420469988E+01  2.509632777835E+01
  2.357349302038E+01  2.198865035524E+01  2.034558174270E+01  1.907781450004E+01
  1.778212172090E+01  1.646099799132E+01  1.511717045543E+01  1.375358024290E+01
  1.237335986619E+01  1.097980690492E+01  9.576354420668E+00  8.166538661420E+00
  6.753964715553E+00  5.342270855885E+00  4.403426967376E+00  3.467659692929E+00
  2.536025700825E+00  1.609564878489E+00  6.892960554992E-01 -2.237870374727E-01
 -1.128719533708E+00 -2.024568882935E+00 -2.910437958589E+00 -3.785467791405E+00
 -4.648839905303E+00 -5.499778236125E+00 -6.337550618349E+00 -7.161469829486E+00
 -7.970894186412E+00 -8.765227692254E+00 -9.543919736798E+00 -1.030646435769E+01
 -1.105239907395E+01 -1.178130330791E+01 -1.249279641632E+01 -1.318653535703E+01
 -1.386221202345E+01 -1.451955028670E+01 -1.515830279347E+01 -1.577824757804E+01
 -1.637918455773E+01 -1.696093199347E+01 -1.752332300840E+01 -1.779721095059E+01
 -1.806620226659E+01 -1.833027884105E+01 -1.858942291723E+01 -1.884361702273E+01
 -1.909284390275E+01 -1.933708646085E+01 -1.957632770734E+01 -1.981055071488E+01
 -2.003973858055E+01 -2.026387439349E+01 -2.048294120652E+01 -2.069692201005E+01
 -2.090579970634E+01 -2.110955708108E+01 -2.130817677084E+01 -2.150164122280E+01
 -2.168993264512E+01 -2.187303294555E+01 -2.205092365714E+01 -2.222358585004E+01
 -2.239100003001E+01 -2.255314602453E+01 -2.271000285921E+01 -2.286154862757E+01
 -2.300776035843E+01 -2.314861388584E+01 -2.328408372643E+01 -2.341414296924E+01
 -2.353876318266E+01 -2.365791434232E+01 -2.377156478298E+01 -2.387968117646E+01
 -2.398222853703E+01 -2.407917025488E+01 -2.417046815859E+01 -2.425608260739E+01
 -2.433597261542E+01 -2.441009601089E+01 -2.447840963525E+01 -2.454086958832E+01
 -2.459743152729E+01 -2.464805102764E+01 -2.469268401416E+01 -2.473128726858E+01
 -2.476381901740E+01 -2.479023959909E+01 -2.481051220408E+01 -2.482460367373E+01
 -2.483248533723E+01 -2.483413385779E+01 -2.482953205333E+01 -2.481866965251E+01
 -2.480154394550E+01 -2.477816029116E+01 -2.474853244778E+01 -2.471268270419E+01
 -2.467064179996E+01 -2.462244863677E+01 -2.456814979710E+01 -2.450779889777E+01
 -2.444145581543E+01 -2.436918582577E+01 -2.429105869894E+01 -2.420714779032E+01
 -2.411752915826E+01 -2.402228073189E+01 -2.392148154134E+01 -2.381521101367E+01
 -2.370354832984E+01 -2.358657183325E+01 -2.346435847857E+01 -2.333698331143E+01
 -2.320451897497E+01 -2.306703524729E+01 -2.292459862522E+01 -2.277727198200E+01
 -2.262511434063E+01 -2.246818081752E+01 -2.230652280346E+01 -2.214018845677E+01