Lu    ONCVPSP-3.3.0  r_core=   1.56315   1.60089   1.45518   1.86943
71.0000     25.0000      180507    zatom,zion,pspd
8      11   3     4   600     0    pspcod,pspxc,lmax,lloc,mmax,r2well
5.99000000  4.00000000  0.00000000    rchrg fchrg qchrg
2     4     4     2    nproj
3     1           extension_switch
4     4     3    nprojso
0                         1.3295579897243D+00  1.2889468041710D+01
1  0.0000000000000D+00  6.4156735479770D-10 -1.2242484803693D-10
2  1.0000000000000D-02 -2.0511319804047D-02  4.7119599673144D-02
3  2.0000000000000D-02 -4.0933326721095D-02  9.4198123174745D-02
4  3.0000000000000D-02 -6.1177510076658D-02  1.4119454175039D-01
5  4.0000000000000D-02 -8.1156951653700D-02  1.8806791987204D-01
6  5.0000000000000D-02 -1.0078709216770D-01  2.3477745786312D-01
7  6.0000000000000D-02 -1.1998646249824D-01  2.8128252982623D-01
8  7.0000000000000D-02 -1.3867736869126D-01  3.2754271545336D-01
9  8.0000000000000D-02 -1.5678652038806D-01  3.7351782442098D-01
10  9.0000000000000D-02 -1.7424559312374D-01  4.1916791222230D-01
11  1.0000000000000D-01 -1.9099171586188D-01  4.6445328646396D-01
12  1.1000000000000D-01 -2.0696787618036D-01  5.0933450285275D-01
13  1.2000000000000D-01 -2.2212323668428D-01  5.5377235031608D-01
14  1.3000000000000D-01 -2.3641335748044D-01  5.9772782493542D-01
15  1.4000000000000D-01 -2.4980032088978D-01  6.4116209262098D-01
16  1.5000000000000D-01 -2.6225275598058D-01  6.8403644071526D-01
17  1.6000000000000D-01 -2.7374576196154D-01  7.2631221897878D-01
18  1.7000000000000D-01 -2.8426073095873D-01  7.6795077067924D-01
19  1.8000000000000D-01 -2.9378507219699D-01  8.0891335477232D-01
20  1.9000000000000D-01 -3.0231184109445D-01  8.4916106042265D-01
21  2.0000000000000D-01 -3.0983927823938D-01  8.8865471536495D-01
22  2.1000000000000D-01 -3.1637026463140D-01  9.2735478984244D-01
23  2.2000000000000D-01 -3.2191170091679D-01  9.6522129807863D-01
24  2.3000000000000D-01 -3.2647381961002D-01  1.0022136994368D+00
25  2.4000000000000D-01 -3.3006944045355D-01  1.0382908015933D+00
26  2.5000000000000D-01 -3.3271318010924D-01  1.0734106681943D+00
27  2.6000000000000D-01 -3.3442062828096D-01  1.1075305335783D+00
28  2.7000000000000D-01 -3.3520750312484D-01  1.1406067272220D+00
29  2.8000000000000D-01 -3.3508879939978D-01  1.1725946106086D+00
30  2.9000000000000D-01 -3.3407794323352D-01  1.2034485292191D+00
31  3.0000000000000D-01 -3.3218596762191D-01  1.2331217823039D+00
32  3.1000000000000D-01 -3.2942072283202D-01  1.2615666130177D+00
33  3.2000000000000D-01 -3.2578613574126D-01  1.2887342213693D+00
34  3.3000000000000D-01 -3.2128153180951D-01  1.3145748022796D+00
35  3.4000000000000D-01 -3.1590103285243D-01  1.3390376108301D+00
36  3.5000000000000D-01 -3.0963304306169D-01  1.3620710565385D+00
37  3.6000000000000D-01 -3.0245983480833D-01  1.3836228282125D+00
38  3.7000000000000D-01 -2.9435724467596D-01  1.4036400506084D+00
39  3.8000000000000D-01 -2.8529448891000D-01  1.4220694737695D+00
40  3.9000000000000D-01 -2.7523410605177D-01  1.4388576955280D+00
41  4.0000000000000D-01 -2.6413203296441D-01  1.4539514172459D+00
42  4.1000000000000D-01 -2.5193781877020D-01  1.4672977324331D+00
43  4.2000000000000D-01 -2.3859497942186D-01  1.4788444474307D+00
44  4.3000000000000D-01 -2.2404149374806D-01  1.4885404328822D+00
45  4.4000000000000D-01 -2.0821043986378D-01  1.4963360042465D+00
46  4.5000000000000D-01 -1.9103076884628D-01  1.5021833291326D+00
47  4.6000000000000D-01 -1.7242821056965D-01  1.5060368587728D+00
48  4.7000000000000D-01 -1.5232630459173D-01  1.5078537804942D+00
49  4.8000000000000D-01 -1.3064754702309D-01  1.5075944876102D+00
50  4.9000000000000D-01 -1.0731464240353D-01  1.5052230627442D+00
51  5.0000000000000D-01 -8.2251847794366D-02  1.5007077702079D+00
52  5.1000000000000D-01 -5.5386394591714D-02  1.4940215527153D+00
53  5.2000000000000D-01 -2.6649971997730D-02  1.4851425274011D+00
54  5.3000000000000D-01  4.0197453170792D-03  1.4740544758590D+00
55  5.4000000000000D-01  3.6677544048745D-02  1.4607473227024D+00
56  5.5000000000000D-01  7.1369113297769D-02  1.4452175970043D+00
57  5.6000000000000D-01  1.0812950030801D-01  1.4274688708797D+00
58  5.7000000000000D-01  1.4698160195988D-01  1.4075121694491D+00
59  5.8000000000000D-01  1.8793471337152D-01  1.3853663464611D+00
60  5.9000000000000D-01  2.3098315500020D-01  1.3610584199613D+00
61  6.0000000000000D-01  2.7610499940143D-01  1.3346238625723D+00
62  6.1000000000000D-01  3.2326091829557D-01  1.3061068411968D+00
63  6.2000000000000D-01  3.7239316980544D-01  1.2755604012751D+00
64  6.3000000000000D-01  4.2342474466781D-01  1.2430465911109D+00
65  6.4000000000000D-01  4.7625868889902D-01  1.2086365222307D+00
66  6.5000000000000D-01  5.3077761880277D-01  1.1724103622553D+00
67  6.6000000000000D-01  5.8684344238427D-01  1.1344572573329D+00
68  6.7000000000000D-01  6.4429729917636D-01  1.0948751818063D+00
69  6.8000000000000D-01  7.0295972821347D-01  1.0537707134593D+00
70  6.9000000000000D-01  7.6263107143876D-01  1.0112587334035D+00
71  7.0000000000000D-01  8.2309211722940D-01  9.6746205040689D-01
72  7.1000000000000D-01  8.8410498597130D-01  9.2251095024570D-01
73  7.2000000000000D-01  9.4541425678499D-01  8.7654267144876D-01
74  7.3000000000000D-01  1.0067483315979D+00  8.2970080960418D-01
75  7.4000000000000D-01  1.0678210298171D+00  7.8213465319982D-01
76  7.5000000000000D-01  1.1283334039385D+00  7.3399845475657D-01
77  7.6000000000000D-01  1.1879757635197D+00  6.8545064179055D-01
78  7.7000000000000D-01  1.2464298921433D+00  6.3665297287999D-01
79  7.8000000000000D-01  1.3033714392980D+00  5.8776964482062D-01
80  7.9000000000000D-01  1.3584724665528D+00  5.3896635751232D-01
81  8.0000000000000D-01  1.4114041250421D+00  4.9040934382318D-01
82  8.1000000000000D-01  1.4618394391341D+00  4.4226437221700D-01
83  8.2000000000000D-01  1.5094561692617D+00  3.9469573039831D-01
84  8.3000000000000D-01  1.5539397252804D+00  3.4786519861802D-01
85  8.4000000000000D-01  1.5949861004063D+00  3.0193102158719D-01
86  8.5000000000000D-01  1.6323047948026D+00  2.5704688816055D-01
87  8.6000000000000D-01  1.6656216972426D+00  2.1336092807051D-01
88  8.7000000000000D-01  1.6946818929970D+00  1.7101473501446D-01
89  8.8000000000000D-01  1.7192523661811D+00  1.3014242531909D-01
90  8.9000000000000D-01  1.7391245652610D+00  9.0869741226644D-02
91  9.0000000000000D-01  1.7541168012581D+00  5.3313207567755D-02
92  9.1000000000000D-01  1.7640764494019D+00  1.7579350206241D-02
93  9.2000000000000D-01  1.7688819265571D+00 -1.6236015834181D-02
94  9.3000000000000D-01  1.7684444186756D+00 -4.8048421219523D-02
95  9.4000000000000D-01  1.7627093347826D+00 -7.7785293444885D-02
96  9.5000000000000D-01  1.7516574665711D+00 -1.0538641831333D-01
97  9.6000000000000D-01  1.7353058355302D+00 -1.3080430661375D-01
98  9.7000000000000D-01  1.7137082126332D+00 -1.5400446173179D-01
99  9.8000000000000D-01  1.6869552989165D+00 -1.7496554485552D-01
100  9.9000000000000D-01  1.6551745588535D+00 -1.9367943543345D-01
101  1.0000000000000D+00  1.6185297018800D+00 -2.1015118550326D-01
102  1.0100000000000D+00  1.5772198113905D+00 -2.2439886760734D-01
103  1.0200000000000D+00  1.5314781241435D+00 -2.3645331701077D-01
104  1.0300000000000D+00  1.4815704668594D+00 -2.4635776999843D-01
105  1.0400000000000D+00  1.4277933605114D+00 -2.5416740105102D-01
106  1.0500000000000D+00  1.3704718065801D+00 -2.5994876273695D-01
107  1.0600000000000D+00  1.3099567727744D+00 -2.6377913304555D-01
108  1.0700000000000D+00  1.2466223994109D+00 -2.6574577590148D-01
109  1.0800000000000D+00  1.1808629505421D+00 -2.6594512139809D-01
110  1.0900000000000D+00  1.1130895368139D+00 -2.6448187308297D-01
111  1.1000000000000D+00  1.0437266396950D+00 -2.6146805036708D-01
112  1.1100000000000D+00  9.7320846860564D-01 -2.5702197464956D-01
113  1.1200000000000D+00  9.0197518478975D-01 -2.5126720839983D-01
114  1.1300000000000D+00  8.3046902687305D-01 -2.4433145674967D-01
115  1.1400000000000D+00  7.5913037419931D-01 -2.3634544148378D-01
116  1.1500000000000D+00  6.8839378460436D-01 -2.2744175748690D-01
117  1.1600000000000D+00  6.1868404358285D-01 -2.1775372181555D-01
118  1.1700000000000D+00  5.5041226142816D-01 -2.0741422548433D-01
119  1.1800000000000D+00  4.8397205391990D-01 -1.9655459781918D-01
120  1.1900000000000D+00  4.1973584175535D-01 -1.8530349314422D-01
121  1.2000000000000D+00  3.5805130151345D-01 -1.7378580896853D-01
122  1.2100000000000D+00  2.9923799910443D-01 -1.6212164436941D-01
123  1.2200000000000D+00  2.4358423468999D-01 -1.5042530676916D-01
124  1.2300000000000D+00  1.9134412526230D-01 -1.3880437458712D-01
125  1.2400000000000D+00  1.4273494721829D-01 -1.2735882225344D-01
126  1.2500000000000D+00  9.7934758486895D-02 -1.1618021335142D-01
127  1.2600000000000D+00  5.7080317304420D-02 -1.0535096702020D-01
128  1.2700000000000D+00  2.0265298560696D-02 -9.4943699219371D-02
129  1.2800000000000D+00 -1.2461160380236D-02 -8.5020645788806D-02
130  1.2900000000000D+00 -4.1095491872325D-02 -7.5633188724930D-02
131  1.3000000000000D+00 -6.5680464963649D-02 -6.6821449083667D-02
132  1.3100000000000D+00 -8.6307129828151D-02 -5.8613683146215D-02
133  1.3200000000000D+00 -1.0310923055216D-01 -5.1027126508819D-02
134  1.3300000000000D+00 -1.1625601489897D-01 -4.4069227778289D-02
135  1.3400000000000D+00 -1.2594345078008D-01 -3.7739335362200D-02
136  1.3500000000000D+00 -1.3239070342214D-01 -3.2029432038219D-02
137  1.3600000000000D+00 -1.3583873993740D-01 -2.6924516565383D-02
138  1.3700000000000D+00 -1.3654693680951D-01 -2.2403362332780D-02
139  1.3800000000000D+00 -1.3479017515457D-01 -1.8439209904583D-02
140  1.3900000000000D+00 -1.3085559667363D-01 -1.5000537277088D-02
141  1.4000000000000D+00 -1.2503928531903D-01 -1.2051857560990D-02
142  1.4100000000000D+00 -1.1764285347041D-01 -9.5545449948874D-03
143  1.4200000000000D+00 -1.0896997653994D-01 -7.4676785611739D-03
144  1.4300000000000D+00 -9.9322915548556D-02 -5.7488929094058D-03
145  1.4400000000000D+00 -8.8999063273271D-02 -4.3552272934596D-03
146  1.4500000000000D+00 -7.8287556784885D-02 -3.2439614904268D-03
147  1.4600000000000D+00 -6.7465989016370D-02 -2.3734301205786D-03
148  1.4700000000000D+00 -5.6797250362740D-02 -1.7038069941757D-03
149  1.4800000000000D+00 -4.6526548123524D-02 -1.1978475969042D-03
150  1.4900000000000D+00 -3.6878638653920D-02 -8.2158078597286D-04
151  1.5000000000000D+00 -2.8055284876999D-02 -5.4494542898600D-04
152  1.5100000000000D+00 -2.0234594548699D-02 -3.4236845901603D-04
153  1.5200000000000D+00 -1.3566281582714D-02 -1.9325869169868D-04
154  1.5300000000000D+00 -8.1393826014777D-03 -8.2806110242676D-05
155  1.5400000000000D+00 -4.0872322780373D-03 -9.7434774361267D-07
156  1.5500000000000D+00 -1.5867685972138D-03  5.9819537063892D-05
157  1.5600000000000D+00 -4.2376561975238D-04  8.7636546558446D-05
158  1.5700000000000D+00 -3.9773959605545D-05  5.9912671050971D-05
159  1.5800000000000D+00  5.0972328758003D-06  8.1481044932566D-06
160  1.5900000000000D+00 -1.2062574033311D-05 -1.0137776748555D-05
161  1.6000000000000D+00 -1.8693777007444D-06 -1.1743697093854D-06
162  1.6100000000000D+00  1.0679739351325D-06  2.2253200986577D-06
163  1.6200000000000D+00  2.1793952539503D-08  3.2843974170240D-08
164  1.6300000000000D+00  7.0239969067033D-07 -2.4314618906531D-07
165  1.6400000000000D+00  0.0000000000000D+00  0.0000000000000D+00
166  1.6500000000000D+00  0.0000000000000D+00  0.0000000000000D+00
167  1.6600000000000D+00  0.0000000000000D+00  0.0000000000000D+00
168  1.6700000000000D+00  0.0000000000000D+00  0.0000000000000D+00
169  1.6800000000000D+00  0.0000000000000D+00  0.0000000000000D+00
170  1.6900000000000D+00  0.0000000000000D+00  0.0000000000000D+00
171  1.7000000000000D+00  0.0000000000000D+00  0.0000000000000D+00
172  1.7100000000000D+00  0.0000000000000D+00  0.0000000000000D+00
173  1.7200000000000D+00  0.0000000000000D+00  0.0000000000000D+00
174  1.7300000000000D+00  0.0000000000000D+00  0.0000000000000D+00
175  1.7400000000000D+00  0.0000000000000D+00  0.0000000000000D+00
176  1.7500000000000D+00  0.0000000000000D+00  0.0000000000000D+00
177  1.7600000000000D+00  0.0000000000000D+00  0.0000000000000D+00
178  1.7700000000000D+00  0.0000000000000D+00  0.0000000000000D+00
179  1.7800000000000D+00  0.0000000000000D+00  0.0000000000000D+00
180  1.7900000000000D+00  0.0000000000000D+00  0.0000000000000D+00
181  1.8000000000000D+00  0.0000000000000D+00  0.0000000000000D+00
182  1.8100000000000D+00  0.0000000000000D+00  0.0000000000000D+00
183  1.8200000000000D+00  0.0000000000000D+00  0.0000000000000D+00
184  1.8300000000000D+00  0.0000000000000D+00  0.0000000000000D+00
185  1.8400000000000D+00  0.0000000000000D+00  0.0000000000000D+00
186  1.8500000000000D+00  0.0000000000000D+00  0.0000000000000D+00
187  1.8600000000000D+00  0.0000000000000D+00  0.0000000000000D+00
188  1.8700000000000D+00  0.0000000000000D+00  0.0000000000000D+00
189  1.8800000000000D+00  0.0000000000000D+00  0.0000000000000D+00
190  1.8900000000000D+00  0.0000000000000D+00  0.0000000000000D+00
191  1.9000000000000D+00  0.0000000000000D+00  0.0000000000000D+00
192  1.9100000000000D+00  0.0000000000000D+00  0.0000000000000D+00
193  1.9200000000000D+00  0.0000000000000D+00  0.0000000000000D+00
194  1.9300000000000D+00  0.0000000000000D+00  0.0000000000000D+00
195  1.9400000000000D+00  0.0000000000000D+00  0.0000000000000D+00
196  1.9500000000000D+00  0.0000000000000D+00  0.0000000000000D+00
197  1.9600000000000D+00  0.0000000000000D+00  0.0000000000000D+00
198  1.9700000000000D+00  0.0000000000000D+00  0.0000000000000D+00
199  1.9800000000000D+00  0.0000000000000D+00  0.0000000000000D+00
200  1.9900000000000D+00  0.0000000000000D+00  0.0000000000000D+00
201  2.0000000000000D+00  0.0000000000000D+00  0.0000000000000D+00
202  2.0100000000000D+00  0.0000000000000D+00  0.0000000000000D+00
203  2.0200000000000D+00  0.0000000000000D+00  0.0000000000000D+00
204  2.0300000000000D+00  0.0000000000000D+00  0.0000000000000D+00
205  2.0400000000000D+00  0.0000000000000D+00  0.0000000000000D+00
206  2.0500000000000D+00  0.0000000000000D+00  0.0000000000000D+00
207  2.0600000000000D+00  0.0000000000000D+00  0.0000000000000D+00
208  2.0700000000000D+00  0.0000000000000D+00  0.0000000000000D+00
209  2.0800000000000D+00  0.0000000000000D+00  0.0000000000000D+00
210  2.0900000000000D+00  0.0000000000000D+00  0.0000000000000D+00
211  2.1000000000000D+00  0.0000000000000D+00  0.0000000000000D+00
212  2.1100000000000D+00  0.0000000000000D+00  0.0000000000000D+00
213  2.1200000000000D+00  0.0000000000000D+00  0.0000000000000D+00
214  2.1300000000000D+00  0.0000000000000D+00  0.0000000000000D+00
215  2.1400000000000D+00  0.0000000000000D+00  0.0000000000000D+00
216  2.1500000000000D+00  0.0000000000000D+00  0.0000000000000D+00
217  2.1600000000000D+00  0.0000000000000D+00  0.0000000000000D+00
218  2.1700000000000D+00  0.0000000000000D+00  0.0000000000000D+00
219  2.1800000000000D+00  0.0000000000000D+00  0.0000000000000D+00
220  2.1900000000000D+00  0.0000000000000D+00  0.0000000000000D+00
221  2.2000000000000D+00  0.0000000000000D+00  0.0000000000000D+00
222  2.2100000000000D+00  0.0000000000000D+00  0.0000000000000D+00
223  2.2200000000000D+00  0.0000000000000D+00  0.0000000000000D+00
224  2.2300000000000D+00  0.0000000000000D+00  0.0000000000000D+00
225  2.2400000000000D+00  0.0000000000000D+00  0.0000000000000D+00
226  2.2500000000000D+00  0.0000000000000D+00  0.0000000000000D+00
227  2.2600000000000D+00  0.0000000000000D+00  0.0000000000000D+00
228  2.2700000000000D+00  0.0000000000000D+00  0.0000000000000D+00
229  2.2800000000000D+00  0.0000000000000D+00  0.0000000000000D+00
230  2.2900000000000D+00  0.0000000000000D+00  0.0000000000000D+00
231  2.3000000000000D+00  0.0000000000000D+00  0.0000000000000D+00
232  2.3100000000000D+00  0.0000000000000D+00  0.0000000000000D+00
233  2.3200000000000D+00  0.0000000000000D+00  0.0000000000000D+00
234  2.3300000000000D+00  0.0000000000000D+00  0.0000000000000D+00
235  2.3400000000000D+00  0.0000000000000D+00  0.0000000000000D+00
236  2.3500000000000D+00  0.0000000000000D+00  0.0000000000000D+00
237  2.3600000000000D+00  0.0000000000000D+00  0.0000000000000D+00
238  2.3700000000000D+00  0.0000000000000D+00  0.0000000000000D+00
239  2.3800000000000D+00  0.0000000000000D+00  0.0000000000000D+00
240  2.3900000000000D+00  0.0000000000000D+00  0.0000000000000D+00
241  2.4000000000000D+00  0.0000000000000D+00  0.0000000000000D+00
242  2.4100000000000D+00  0.0000000000000D+00  0.0000000000000D+00
243  2.4200000000000D+00  0.0000000000000D+00  0.0000000000000D+00
244  2.4300000000000D+00  0.0000000000000D+00  0.0000000000000D+00
245  2.4400000000000D+00  0.0000000000000D+00  0.0000000000000D+00
246  2.4500000000000D+00  0.0000000000000D+00  0.0000000000000D+00
247  2.4600000000000D+00  0.0000000000000D+00  0.0000000000000D+00
248  2.4700000000000D+00  0.0000000000000D+00  0.0000000000000D+00
249  2.4800000000000D+00  0.0000000000000D+00  0.0000000000000D+00
250  2.4900000000000D+00  0.0000000000000D+00  0.0000000000000D+00
251  2.5000000000000D+00  0.0000000000000D+00  0.0000000000000D+00
252  2.5100000000000D+00  0.0000000000000D+00  0.0000000000000D+00
253  2.5200000000000D+00  0.0000000000000D+00  0.0000000000000D+00
254  2.5300000000000D+00  0.0000000000000D+00  0.0000000000000D+00
255  2.5400000000000D+00  0.0000000000000D+00  0.0000000000000D+00
256  2.5500000000000D+00  0.0000000000000D+00  0.0000000000000D+00
257  2.5600000000000D+00  0.0000000000000D+00  0.0000000000000D+00
258  2.5700000000000D+00  0.0000000000000D+00  0.0000000000000D+00
259  2.5800000000000D+00  0.0000000000000D+00  0.0000000000000D+00
260  2.5900000000000D+00  0.0000000000000D+00  0.0000000000000D+00
261  2.6000000000000D+00  0.0000000000000D+00  0.0000000000000D+00
262  2.6100000000000D+00  0.0000000000000D+00  0.0000000000000D+00
263  2.6200000000000D+00  0.0000000000000D+00  0.0000000000000D+00
264  2.6300000000000D+00  0.0000000000000D+00  0.0000000000000D+00
265  2.6400000000000D+00  0.0000000000000D+00  0.0000000000000D+00
266  2.6500000000000D+00  0.0000000000000D+00  0.0000000000000D+00
267  2.6600000000000D+00  0.0000000000000D+00  0.0000000000000D+00
268  2.6700000000000D+00  0.0000000000000D+00  0.0000000000000D+00
269  2.6800000000000D+00  0.0000000000000D+00  0.0000000000000D+00
270  2.6900000000000D+00  0.0000000000000D+00  0.0000000000000D+00
271  2.7000000000000D+00  0.0000000000000D+00  0.0000000000000D+00
272  2.7100000000000D+00  0.0000000000000D+00  0.0000000000000D+00
273  2.7200000000000D+00  0.0000000000000D+00  0.0000000000000D+00
274  2.7300000000000D+00  0.0000000000000D+00  0.0000000000000D+00
275  2.7400000000000D+00  0.0000000000000D+00  0.0000000000000D+00
276  2.7500000000000D+00  0.0000000000000D+00  0.0000000000000D+00
277  2.7600000000000D+00  0.0000000000000D+00  0.0000000000000D+00
278  2.7700000000000D+00  0.0000000000000D+00  0.0000000000000D+00
279  2.7800000000000D+00  0.0000000000000D+00  0.0000000000000D+00
280  2.7900000000000D+00  0.0000000000000D+00  0.0000000000000D+00
281  2.8000000000000D+00  0.0000000000000D+00  0.0000000000000D+00
282  2.8100000000000D+00  0.0000000000000D+00  0.0000000000000D+00
283  2.8200000000000D+00  0.0000000000000D+00  0.0000000000000D+00
284  2.8300000000000D+00  0.0000000000000D+00  0.0000000000000D+00
285  2.8400000000000D+00  0.0000000000000D+00  0.0000000000000D+00
286  2.8500000000000D+00  0.0000000000000D+00  0.0000000000000D+00
287  2.8600000000000D+00  0.0000000000000D+00  0.0000000000000D+00
288  2.8700000000000D+00  0.0000000000000D+00  0.0000000000000D+00
289  2.8800000000000D+00  0.0000000000000D+00  0.0000000000000D+00
290  2.8900000000000D+00  0.0000000000000D+00  0.0000000000000D+00
291  2.9000000000000D+00  0.0000000000000D+00  0.0000000000000D+00
292  2.9100000000000D+00  0.0000000000000D+00  0.0000000000000D+00
293  2.9200000000000D+00  0.0000000000000D+00  0.0000000000000D+00
294  2.9300000000000D+00  0.0000000000000D+00  0.0000000000000D+00
295  2.9400000000000D+00  0.0000000000000D+00  0.0000000000000D+00
296  2.9500000000000D+00  0.0000000000000D+00  0.0000000000000D+00
297  2.9600000000000D+00  0.0000000000000D+00  0.0000000000000D+00
298  2.9700000000000D+00  0.0000000000000D+00  0.0000000000000D+00
299  2.9800000000000D+00  0.0000000000000D+00  0.0000000000000D+00
300  2.9900000000000D+00  0.0000000000000D+00  0.0000000000000D+00
301  3.0000000000000D+00  0.0000000000000D+00  0.0000000000000D+00
302  3.0100000000000D+00  0.0000000000000D+00  0.0000000000000D+00
303  3.0200000000000D+00  0.0000000000000D+00  0.0000000000000D+00
304  3.0300000000000D+00  0.0000000000000D+00  0.0000000000000D+00
305  3.0400000000000D+00  0.0000000000000D+00  0.0000000000000D+00
306  3.0500000000000D+00  0.0000000000000D+00  0.0000000000000D+00
307  3.0600000000000D+00  0.0000000000000D+00  0.0000000000000D+00
308  3.0700000000000D+00  0.0000000000000D+00  0.0000000000000D+00
309  3.0800000000000D+00  0.0000000000000D+00  0.0000000000000D+00
310  3.0900000000000D+00  0.0000000000000D+00  0.0000000000000D+00
311  3.1000000000000D+00  0.0000000000000D+00  0.0000000000000D+00
312  3.1100000000000D+00  0.0000000000000D+00  0.0000000000000D+00
313  3.1200000000000D+00  0.0000000000000D+00  0.0000000000000D+00
314  3.1300000000000D+00  0.0000000000000D+00  0.0000000000000D+00
315  3.1400000000000D+00  0.0000000000000D+00  0.0000000000000D+00
316  3.1500000000000D+00  0.0000000000000D+00  0.0000000000000D+00
317  3.1600000000000D+00  0.0000000000000D+00  0.0000000000000D+00
318  3.1700000000000D+00  0.0000000000000D+00  0.0000000000000D+00
319  3.1800000000000D+00  0.0000000000000D+00  0.0000000000000D+00
320  3.1900000000000D+00  0.0000000000000D+00  0.0000000000000D+00
321  3.2000000000000D+00  0.0000000000000D+00  0.0000000000000D+00
322  3.2100000000000D+00  0.0000000000000D+00  0.0000000000000D+00
323  3.2200000000000D+00  0.0000000000000D+00  0.0000000000000D+00
324  3.2300000000000D+00  0.0000000000000D+00  0.0000000000000D+00
325  3.2400000000000D+00  0.0000000000000D+00  0.0000000000000D+00
326  3.2500000000000D+00  0.0000000000000D+00  0.0000000000000D+00
327  3.2600000000000D+00  0.0000000000000D+00  0.0000000000000D+00
328  3.2700000000000D+00  0.0000000000000D+00  0.0000000000000D+00
329  3.2800000000000D+00  0.0000000000000D+00  0.0000000000000D+00
330  3.2900000000000D+00  0.0000000000000D+00  0.0000000000000D+00
331  3.3000000000000D+00  0.0000000000000D+00  0.0000000000000D+00
332  3.3100000000000D+00  0.0000000000000D+00  0.0000000000000D+00
333  3.3200000000000D+00  0.0000000000000D+00  0.0000000000000D+00
334  3.3300000000000D+00  0.0000000000000D+00  0.0000000000000D+00
335  3.3400000000000D+00  0.0000000000000D+00  0.0000000000000D+00
336  3.3500000000000D+00  0.0000000000000D+00  0.0000000000000D+00
337  3.3600000000000D+00  0.0000000000000D+00  0.0000000000000D+00
338  3.3700000000000D+00  0.0000000000000D+00  0.0000000000000D+00
339  3.3800000000000D+00  0.0000000000000D+00  0.0000000000000D+00
340  3.3900000000000D+00  0.0000000000000D+00  0.0000000000000D+00
341  3.4000000000000D+00  0.0000000000000D+00  0.0000000000000D+00
342  3.4100000000000D+00  0.0000000000000D+00  0.0000000000000D+00
343  3.4200000000000D+00  0.0000000000000D+00  0.0000000000000D+00
344  3.4300000000000D+00  0.0000000000000D+00  0.0000000000000D+00
345  3.4400000000000D+00  0.0000000000000D+00  0.0000000000000D+00
346  3.4500000000000D+00  0.0000000000000D+00  0.0000000000000D+00
347  3.4600000000000D+00  0.0000000000000D+00  0.0000000000000D+00
348  3.4700000000000D+00  0.0000000000000D+00  0.0000000000000D+00
349  3.4800000000000D+00  0.0000000000000D+00  0.0000000000000D+00
350  3.4900000000000D+00  0.0000000000000D+00  0.0000000000000D+00
351  3.5000000000000D+00  0.0000000000000D+00  0.0000000000000D+00
352  3.5100000000000D+00  0.0000000000000D+00  0.0000000000000D+00
353  3.5200000000000D+00  0.0000000000000D+00  0.0000000000000D+00
354  3.5300000000000D+00  0.0000000000000D+00  0.0000000000000D+00
355  3.5400000000000D+00  0.0000000000000D+00  0.0000000000000D+00
356  3.5500000000000D+00  0.0000000000000D+00  0.0000000000000D+00
357  3.5600000000000D+00  0.0000000000000D+00  0.0000000000000D+00
358  3.5700000000000D+00  0.0000000000000D+00  0.0000000000000D+00
359  3.5800000000000D+00  0.0000000000000D+00  0.0000000000000D+00
360  3.5900000000000D+00  0.0000000000000D+00  0.0000000000000D+00
361  3.6000000000000D+00  0.0000000000000D+00  0.0000000000000D+00
362  3.6100000000000D+00  0.0000000000000D+00  0.0000000000000D+00
363  3.6200000000000D+00  0.0000000000000D+00  0.0000000000000D+00
364  3.6300000000000D+00  0.0000000000000D+00  0.0000000000000D+00
365  3.6400000000000D+00  0.0000000000000D+00  0.0000000000000D+00
366  3.6500000000000D+00  0.0000000000000D+00  0.0000000000000D+00
367  3.6600000000000D+00  0.0000000000000D+00  0.0000000000000D+00
368  3.6700000000000D+00  0.0000000000000D+00  0.0000000000000D+00
369  3.6800000000000D+00  0.0000000000000D+00  0.0000000000000D+00
370  3.6900000000000D+00  0.0000000000000D+00  0.0000000000000D+00
371  3.7000000000000D+00  0.0000000000000D+00  0.0000000000000D+00
372  3.7100000000000D+00  0.0000000000000D+00  0.0000000000000D+00
373  3.7200000000000D+00  0.0000000000000D+00  0.0000000000000D+00
374  3.7300000000000D+00  0.0000000000000D+00  0.0000000000000D+00
375  3.7400000000000D+00  0.0000000000000D+00  0.0000000000000D+00
376  3.7500000000000D+00  0.0000000000000D+00  0.0000000000000D+00
377  3.7600000000000D+00  0.0000000000000D+00  0.0000000000000D+00
378  3.7700000000000D+00  0.0000000000000D+00  0.0000000000000D+00
379  3.7800000000000D+00  0.0000000000000D+00  0.0000000000000D+00
380  3.7900000000000D+00  0.0000000000000D+00  0.0000000000000D+00
381  3.8000000000000D+00  0.0000000000000D+00  0.0000000000000D+00
382  3.8100000000000D+00  0.0000000000000D+00  0.0000000000000D+00
383  3.8200000000000D+00  0.0000000000000D+00  0.0000000000000D+00
384  3.8300000000000D+00  0.0000000000000D+00  0.0000000000000D+00
385  3.8400000000000D+00  0.0000000000000D+00  0.0000000000000D+00
386  3.8500000000000D+00  0.0000000000000D+00  0.0000000000000D+00
387  3.8600000000000D+00  0.0000000000000D+00  0.0000000000000D+00
388  3.8700000000000D+00  0.0000000000000D+00  0.0000000000000D+00
389  3.8800000000000D+00  0.0000000000000D+00  0.0000000000000D+00
390  3.8900000000000D+00  0.0000000000000D+00  0.0000000000000D+00
391  3.9000000000000D+00  0.0000000000000D+00  0.0000000000000D+00
392  3.9100000000000D+00  0.0000000000000D+00  0.0000000000000D+00
393  3.9200000000000D+00  0.0000000000000D+00  0.0000000000000D+00
394  3.9300000000000D+00  0.0000000000000D+00  0.0000000000000D+00
395  3.9400000000000D+00  0.0000000000000D+00  0.0000000000000D+00
396  3.9500000000000D+00  0.0000000000000D+00  0.0000000000000D+00
397  3.9600000000000D+00  0.0000000000000D+00  0.0000000000000D+00
398  3.9700000000000D+00  0.0000000000000D+00  0.0000000000000D+00
399  3.9800000000000D+00  0.0000000000000D+00  0.0000000000000D+00
400  3.9900000000000D+00  0.0000000000000D+00  0.0000000000000D+00
401  4.0000000000000D+00  0.0000000000000D+00  0.0000000000000D+00
402  4.0100000000000D+00  0.0000000000000D+00  0.0000000000000D+00
403  4.0200000000000D+00  0.0000000000000D+00  0.0000000000000D+00
404  4.0300000000000D+00  0.0000000000000D+00  0.0000000000000D+00
405  4.0400000000000D+00  0.0000000000000D+00  0.0000000000000D+00
406  4.0500000000000D+00  0.0000000000000D+00  0.0000000000000D+00
407  4.0600000000000D+00  0.0000000000000D+00  0.0000000000000D+00
408  4.0700000000000D+00  0.0000000000000D+00  0.0000000000000D+00
409  4.0800000000000D+00  0.0000000000000D+00  0.0000000000000D+00
410  4.0900000000000D+00  0.0000000000000D+00  0.0000000000000D+00
411  4.1000000000000D+00  0.0000000000000D+00  0.0000000000000D+00
412  4.1100000000000D+00  0.0000000000000D+00  0.0000000000000D+00
413  4.1200000000000D+00  0.0000000000000D+00  0.0000000000000D+00
414  4.1300000000000D+00  0.0000000000000D+00  0.0000000000000D+00
415  4.1400000000000D+00  0.0000000000000D+00  0.0000000000000D+00
416  4.1500000000000D+00  0.0000000000000D+00  0.0000000000000D+00
417  4.1600000000000D+00  0.0000000000000D+00  0.0000000000000D+00
418  4.1700000000000D+00  0.0000000000000D+00  0.0000000000000D+00
419  4.1800000000000D+00  0.0000000000000D+00  0.0000000000000D+00
420  4.1900000000000D+00  0.0000000000000D+00  0.0000000000000D+00
421  4.2000000000000D+00  0.0000000000000D+00  0.0000000000000D+00
422  4.2100000000000D+00  0.0000000000000D+00  0.0000000000000D+00
423  4.2200000000000D+00  0.0000000000000D+00  0.0000000000000D+00
424  4.2300000000000D+00  0.0000000000000D+00  0.0000000000000D+00
425  4.2400000000000D+00  0.0000000000000D+00  0.0000000000000D+00
426  4.2500000000000D+00  0.0000000000000D+00  0.0000000000000D+00
427  4.2600000000000D+00  0.0000000000000D+00  0.0000000000000D+00
428  4.2700000000000D+00  0.0000000000000D+00  0.0000000000000D+00
429  4.2800000000000D+00  0.0000000000000D+00  0.0000000000000D+00
430  4.2900000000000D+00  0.0000000000000D+00  0.0000000000000D+00
431  4.3000000000000D+00  0.0000000000000D+00  0.0000000000000D+00
432  4.3100000000000D+00  0.0000000000000D+00  0.0000000000000D+00
433  4.3200000000000D+00  0.0000000000000D+00  0.0000000000000D+00
434  4.3300000000000D+00  0.0000000000000D+00  0.0000000000000D+00
435  4.3400000000000D+00  0.0000000000000D+00  0.0000000000000D+00
436  4.3500000000000D+00  0.0000000000000D+00  0.0000000000000D+00
437  4.3600000000000D+00  0.0000000000000D+00  0.0000000000000D+00
438  4.3700000000000D+00  0.0000000000000D+00  0.0000000000000D+00
439  4.3800000000000D+00  0.0000000000000D+00  0.0000000000000D+00
440  4.3900000000000D+00  0.0000000000000D+00  0.0000000000000D+00
441  4.4000000000000D+00  0.0000000000000D+00  0.0000000000000D+00
442  4.4100000000000D+00  0.0000000000000D+00  0.0000000000000D+00
443  4.4200000000000D+00  0.0000000000000D+00  0.0000000000000D+00