Hf    ONCVPSP-3.3.0  r_core=   1.55994   1.61677   1.40114   1.61677
72.0000     26.0000      180507    zatom,zion,pspd
8      11   3     4   600     0    pspcod,pspxc,lmax,lloc,mmax,r2well
5.99000000  3.00000000  0.00000000    rchrg fchrg qchrg
2     4     4     2    nproj
3     1           extension_switch
4     4     3    nprojso
0                         1.4468404024449D+00  1.2995402110881D+01
1  0.0000000000000D+00  7.1325595429883D-10 -1.5159934418918D-10
2  1.0000000000000D-02 -2.2147997420700D-02  4.9858946202004D-02
3  2.0000000000000D-02 -4.4186368662666D-02  9.9663895156876D-02
4  3.0000000000000D-02 -6.6006464347012D-02  1.4936097455308D-01
5  4.0000000000000D-02 -8.7501575019142D-02  1.9889655965123D-01
6  5.0000000000000D-02 -1.0856786710610D-01  2.4821739136181D-01
7  6.0000000000000D-02 -1.2910527858042D-01  2.9727068758202D-01
8  7.0000000000000D-02 -1.4901836174647D-01  3.4600424572507D-01
9  8.0000000000000D-02 -1.6821706127863D-01  3.9436653452732D-01
10  9.0000000000000D-02 -1.8661741651600D-01  4.4230677340359D-01
11  1.0000000000000D-01 -2.0414217804547D-01  4.8977499783913D-01
12  1.1000000000000D-01 -2.2072132977203D-01  5.3672210955242D-01
13  1.2000000000000D-01 -2.3629250896668D-01  5.8309991043474D-01
14  1.3000000000000D-01 -2.5080131818469D-01  6.2886111956581D-01
15  1.4000000000000D-01 -2.6420152444093D-01  6.7395937291635D-01
16  1.5000000000000D-01 -2.7645514259815D-01  7.1834920567274D-01
17  1.6000000000000D-01 -2.8753240154745D-01  7.6198601745318D-01
18  1.7000000000000D-01 -2.9741159341899D-01  8.0482602102277D-01
19  1.8000000000000D-01 -3.0607880773322D-01  8.4682617545249D-01
20  1.9000000000000D-01 -3.1352755406766D-01  8.8794410499954D-01
21  2.0000000000000D-01 -3.1975827845078D-01  9.2813800530798D-01
22  2.1000000000000D-01 -3.2477778028032D-01  9.6736653883565D-01
23  2.2000000000000D-01 -3.2859853807815D-01  1.0055887216998D+00
24  2.3000000000000D-01 -3.3123795381738D-01  1.0427638043955D+00
25  2.4000000000000D-01 -3.3271752686912D-01  1.0788511490743D+00
26  2.5000000000000D-01 -3.3306196979866D-01  1.1138101062702D+00
27  2.6000000000000D-01 -3.3229827927583D-01  1.1475998941213D+00
28  2.7000000000000D-01 -3.3045477623695D-01  1.1801794832599D+00
29  2.8000000000000D-01 -3.2756013013099D-01  1.2115074906217D+00
30  2.9000000000000D-01 -3.2364238258885D-01  1.2415420854558D+00
31  3.0000000000000D-01 -3.1872798616297D-01  1.2702409108060D+00
32  3.1000000000000D-01 -3.1284087388486D-01  1.2975610236667D+00
33  3.2000000000000D-01 -3.0600157527754D-01  1.3234588569043D+00
34  3.3000000000000D-01 -2.9822639413439D-01  1.3478902058704D+00
35  3.4000000000000D-01 -2.8952666283580D-01  1.3708102424188D+00
36  3.5000000000000D-01 -2.7990808722241D-01  1.3921735587788D+00
37  3.6000000000000D-01 -2.6937019508462D-01  1.4119342434234D+00
38  3.7000000000000D-01 -2.5790590016991D-01  1.4300459907247D+00
39  3.8000000000000D-01 -2.4550119226311D-01  1.4464622457899D+00
40  3.9000000000000D-01 -2.3213496237309D-01  1.4611363854429D+00
41  4.0000000000000D-01 -2.1777897037953D-01  1.4740219358522D+00
42  4.1000000000000D-01 -2.0239796067109D-01  1.4850728268152D+00
43  4.2000000000000D-01 -1.8594992936459D-01  1.4942436821935D+00
44  4.3000000000000D-01 -1.6838654465440D-01  1.5014901454662D+00
45  4.4000000000000D-01 -1.4965371972641D-01  1.5067692388248D+00
46  4.5000000000000D-01 -1.2969233550822D-01  1.5100397536935D+00
47  4.6000000000000D-01 -1.0843910834271D-01  1.5112626700154D+00
48  4.7000000000000D-01 -8.5827595493571D-02  1.5104016011181D+00
49  4.8000000000000D-01 -6.1789329248717D-02  1.5074232604590D+00
50  4.9000000000000D-01 -3.6255068306972D-02  1.5022979460680D+00
51  5.0000000000000D-01 -9.1561531457404D-03  1.4950000380459D+00
52  5.1000000000000D-01  1.9574049800212D-02  1.4855085040690D+00
53  5.2000000000000D-01  4.9998632038659D-02  1.4738074074768D+00
54  5.3000000000000D-01  8.2175573435456D-02  1.4598864122065D+00
55  5.4000000000000D-01  1.1615613893092D-01  1.4437412785792D+00
56  5.5000000000000D-01  1.5198326246935D-01  1.4253743437487D+00
57  5.6000000000000D-01  1.8968993994273D-01  1.4047949804995D+00
58  5.7000000000000D-01  2.2929765357567D-01  1.3820200280227D+00
59  5.8000000000000D-01  2.7081485053516D-01  1.3570741883262D+00
60  5.9000000000000D-01  3.1423549861764D-01  1.3299903820296D+00
61  6.0000000000000D-01  3.5953774164102D-01  1.3008100574773D+00
62  6.1000000000000D-01  4.0668267665024D-01  1.2695834473573D+00
63  6.2000000000000D-01  4.5561327421834D-01  1.2363697673563D+00
64  6.3000000000000D-01  5.0625346201397D-01  1.2012373517898D+00
65  6.4000000000000D-01  5.5850739039395D-01  1.1642637216430D+00
66  6.5000000000000D-01  6.1225889709225D-01  1.1255355810141D+00
67  6.6000000000000D-01  6.6737118613398D-01  1.0851487385836D+00
68  6.7000000000000D-01  7.2368673389523D-01  1.0432079514204D+00
69  6.8000000000000D-01  7.8102743281230D-01  9.9982668918238D-01
70  6.9000000000000D-01  8.3919498062597D-01  9.5512681755864D-01
71  7.0000000000000D-01  8.9797152025065D-01  9.0923820063245D-01
72  7.1000000000000D-01  9.5712053242597D-01  8.6229822270684D-01
73  7.2000000000000D-01  1.0163879802746D+00  8.1445123101543D-01
74  7.3000000000000D-01  1.0755037017770D+00  7.6584790163659D-01
75  7.4000000000000D-01  1.1341830430478D+00  7.1664453181885D-01
76  7.5000000000000D-01  1.1921287221480D+00  6.6700226281483D-01
77  7.6000000000000D-01  1.2490329100934D+00  6.1708623817934D-01
78  7.7000000000000D-01  1.3045795127180D+00  5.6706470331983D-01
79  7.8000000000000D-01  1.3584466341738D+00  5.1710805287514D-01
80  7.9000000000000D-01  1.4103092001444D+00  4.6738783323403D-01
81  8.0000000000000D-01  1.4598417163412D+00  4.1807570817681D-01
82  8.1000000000000D-01  1.5067211355838D+00  3.6934239622321D-01
83  8.2000000000000D-01  1.5506298047732D+00  3.2135658878784D-01
84  8.3000000000000D-01  1.5912584613707D+00  2.7428385867324D-01
85  8.4000000000000D-01  1.6283092476339D+00  2.2828556876388D-01
86  8.5000000000000D-01  1.6614987098519D+00  1.8351779101401D-01
87  8.6000000000000D-01  1.6905607491864D+00  1.4013024594551D-01
88  8.7000000000000D-01  1.7152494904753D+00  9.8265272884170D-02
89  8.8000000000000D-01  1.7353420355093D+00  5.8056841061901D-02
90  8.9000000000000D-01  1.7506410678426D+00  1.9629611497452D-02
91  9.0000000000000D-01  1.7609772771650D+00 -1.6901940761859D-02
92  9.1000000000000D-01  1.7662115726114D+00 -5.1434334892329D-02
93  9.2000000000000D-01  1.7662370561400D+00 -8.3875814446987D-02
94  9.3000000000000D-01  1.7609807292335D+00 -1.1414699146806D-01
95  9.4000000000000D-01  1.7504049086466D+00 -1.4218139736772D-01
96  9.5000000000000D-01  1.7345083297356D+00 -1.6792593422707D-01
97  9.6000000000000D-01  1.7133269190027D+00 -1.9134122108597D-01
98  9.7000000000000D-01  1.6869342208589D+00 -2.1240183079066D-01
99  9.8000000000000D-01  1.6554414672022D+00 -2.3109641402175D-01
100  9.9000000000000D-01  1.6189972821732D+00 -2.4742770822645D-01
101  1.0000000000000D+00  1.5777870184410D+00 -2.6141243034159D-01
102  1.0100000000000D+00  1.5320317252233D+00 -2.7308105331199D-01
103  1.0200000000000D+00  1.4819867524771D+00 -2.8247746763633D-01
104  1.0300000000000D+00  1.4279399996550D+00 -2.8965853031689D-01
105  1.0400000000000D+00  1.3702098214244D+00 -2.9469350474531D-01
106  1.0500000000000D+00  1.3091426066231D+00 -2.9766339617521D-01
107  1.0600000000000D+00  1.2451100505885D+00 -2.9866018854714D-01
108  1.0700000000000D+00  1.1785061441616D+00 -2.9778598934249D-01
109  1.0800000000000D+00  1.1097439064124D+00 -2.9515209022564D-01
110  1.0900000000000D+00  1.0392518907771D+00 -2.9087795199639D-01
111  1.1000000000000D+00  9.6747049707192D-01 -2.8509012317951D-01
112  1.1100000000000D+00  8.9484812408669D-01 -2.7792110223040D-01
113  1.1200000000000D+00  8.2183719923878D-01 -2.6950815385515D-01
114  1.1300000000000D+00  7.4889012344307D-01 -2.5999209044100D-01
115  1.1400000000000D+00  6.7645517012049D-01 -2.4951602982827D-01
116  1.1500000000000D+00  6.0497237776931D-01 -2.3822414082246D-01
117  1.1600000000000D+00  5.3486947577139D-01 -2.2626038793238D-01
118  1.1700000000000D+00  4.6655788251279D-01 -2.1376728668622D-01
119  1.1800000000000D+00  4.0042881390222D-01 -2.0088468061819D-01
120  1.1900000000000D+00  3.3684953902615D-01 -1.8774855066649D-01
121  1.2000000000000D+00  2.7615981821007D-01 -1.7448986733463D-01
122  1.2100000000000D+00  2.1866855590859D-01 -1.6123349520015D-01
123  1.2200000000000D+00  1.6465069775546D-01 -1.4809715851374D-01
124  1.2300000000000D+00  1.1434440009563D-01 -1.3519047636072D-01
125  1.2400000000000D+00  6.7948494397160D-02 -1.2261407423976D-01
126  1.2500000000000D+00  2.5620265881980D-02 -1.1045877807154D-01
127  1.2600000000000D+00 -1.2526438941597D-02 -9.8804895553305D-02
128  1.2700000000000D+00 -4.6422753797274D-02 -8.7721590848090D-02
129  1.2800000000000D+00 -7.6046041226607D-02 -7.7266341240534D-02
130  1.2900000000000D+00 -1.0142043419790D-01 -6.7484565795852D-02
131  1.3000000000000D+00 -1.2261790809828D-01 -5.8409160873671D-02
132  1.3100000000000D+00 -1.3975863719263D-01 -5.0060218351960D-02
133  1.3200000000000D+00 -1.5300411331674D-01 -4.2446239949336D-02
134  1.3300000000000D+00 -1.6255006386529D-01 -3.5565520627855D-02
135  1.3400000000000D+00 -1.6861795339129D-01 -2.9407933271852D-02
136  1.3500000000000D+00 -1.7145328404690D-01 -2.3955372892945D-02
137  1.3600000000000D+00 -1.7132298154307D-01 -1.9182420809497D-02
138  1.3700000000000D+00 -1.6851204506276D-01 -1.5057166163303D-02
139  1.3800000000000D+00 -1.6332030238659D-01 -1.1542029556401D-02
140  1.3900000000000D+00 -1.5605894700693D-01 -8.5946452713832D-03
141  1.4000000000000D+00 -1.4704697250318D-01 -6.1687771723463D-03
142  1.4100000000000D+00 -1.3660752115105D-01 -4.2152619301861D-03
143  1.4200000000000D+00 -1.2506418659730D-01 -2.6829687925014D-03
144  1.4300000000000D+00 -1.1273733280874D-01 -1.5197598176771D-03
145  1.4400000000000D+00 -9.9940453503966D-02 -6.7344315290351D-04
146  1.4500000000000D+00 -8.6976596650952D-02 -9.2711819918532D-05
147  1.4600000000000D+00 -7.4134921204090D-02  2.7194913500190D-04
148  1.4700000000000D+00 -6.1687419801948D-02  4.6739649232104D-04
149  1.4800000000000D+00 -4.9885834229284D-02  5.3701181808124D-04
150  1.4900000000000D+00 -3.8958796101368D-02  5.1994210697322D-04
151  1.5000000000000D+00 -2.9109239623261D-02  4.5041083942217D-04
152  1.5100000000000D+00 -2.0516679329320D-02  3.5723134924641D-04
153  1.5200000000000D+00 -1.3316177555528D-02  2.6274405942645D-04
154  1.5300000000000D+00 -7.5864639431919D-03  1.8141468195792D-04
155  1.5400000000000D+00 -3.5118270525962D-03  1.2719590933928D-04
156  1.5500000000000D+00 -1.2113968259252D-03  1.0793828784815D-04
157  1.5600000000000D+00 -2.5176901484962D-04  9.0833716247909D-05
158  1.5700000000000D+00  8.3753516417210D-06  4.1244240539902D-05
159  1.5800000000000D+00 -3.7390543771858D-06 -2.9914285513339D-06
160  1.5900000000000D+00 -1.6033346416229D-05 -8.0435176295870D-06
161  1.6000000000000D+00  6.8258509681922D-07  9.6521019616589D-07
162  1.6100000000000D+00  1.7358684753318D-06  1.7650188333565D-06
163  1.6200000000000D+00  4.0494633782519D-07 -1.4454421909890D-07
164  1.6300000000000D+00  5.8371714821488D-07 -2.0835585232475D-07
165  1.6400000000000D+00  0.0000000000000D+00  0.0000000000000D+00
166  1.6500000000000D+00  0.0000000000000D+00  0.0000000000000D+00
167  1.6600000000000D+00  0.0000000000000D+00  0.0000000000000D+00
168  1.6700000000000D+00  0.0000000000000D+00  0.0000000000000D+00
169  1.6800000000000D+00  0.0000000000000D+00  0.0000000000000D+00
170  1.6900000000000D+00  0.0000000000000D+00  0.0000000000000D+00
171  1.7000000000000D+00  0.0000000000000D+00  0.0000000000000D+00
172  1.7100000000000D+00  0.0000000000000D+00  0.0000000000000D+00
173  1.7200000000000D+00  0.0000000000000D+00  0.0000000000000D+00
174  1.7300000000000D+00  0.0000000000000D+00  0.0000000000000D+00
175  1.7400000000000D+00  0.0000000000000D+00  0.0000000000000D+00
176  1.7500000000000D+00  0.0000000000000D+00  0.0000000000000D+00
177  1.7600000000000D+00  0.0000000000000D+00  0.0000000000000D+00
178  1.7700000000000D+00  0.0000000000000D+00  0.0000000000000D+00
179  1.7800000000000D+00  0.0000000000000D+00  0.0000000000000D+00
180  1.7900000000000D+00  0.0000000000000D+00  0.0000000000000D+00
181  1.8000000000000D+00  0.0000000000000D+00  0.0000000000000D+00
182  1.8100000000000D+00  0.0000000000000D+00  0.0000000000000D+00
183  1.8200000000000D+00  0.0000000000000D+00  0.0000000000000D+00
184  1.8300000000000D+00  0.0000000000000D+00  0.0000000000000D+00
185  1.8400000000000D+00  0.0000000000000D+00  0.0000000000000D+00
186  1.8500000000000D+00  0.0000000000000D+00  0.0000000000000D+00
187  1.8600000000000D+00  0.0000000000000D+00  0.0000000000000D+00
188  1.8700000000000D+00  0.0000000000000D+00  0.0000000000000D+00
189  1.8800000000000D+00  0.0000000000000D+00  0.0000000000000D+00
190  1.8900000000000D+00  0.0000000000000D+00  0.0000000000000D+00
191  1.9000000000000D+00  0.0000000000000D+00  0.0000000000000D+00
192  1.9100000000000D+00  0.0000000000000D+00  0.0000000000000D+00
193  1.9200000000000D+00  0.0000000000000D+00  0.0000000000000D+00
194  1.9300000000000D+00  0.0000000000000D+00  0.0000000000000D+00
195  1.9400000000000D+00  0.0000000000000D+00  0.0000000000000D+00
196  1.9500000000000D+00  0.0000000000000D+00  0.0000000000000D+00
197  1.9600000000000D+00  0.0000000000000D+00  0.0000000000000D+00
198  1.9700000000000D+00  0.0000000000000D+00  0.0000000000000D+00
199  1.9800000000000D+00  0.0000000000000D+00  0.0000000000000D+00
200  1.9900000000000D+00  0.0000000000000D+00  0.0000000000000D+00
201  2.0000000000000D+00  0.0000000000000D+00  0.0000000000000D+00
202  2.0100000000000D+00  0.0000000000000D+00  0.0000000000000D+00
203  2.0200000000000D+00  0.0000000000000D+00  0.0000000000000D+00
204  2.0300000000000D+00  0.0000000000000D+00  0.0000000000000D+00
205  2.0400000000000D+00  0.0000000000000D+00  0.0000000000000D+00
206  2.0500000000000D+00  0.0000000000000D+00  0.0000000000000D+00
207  2.0600000000000D+00  0.0000000000000D+00  0.0000000000000D+00
208  2.0700000000000D+00  0.0000000000000D+00  0.0000000000000D+00
209  2.0800000000000D+00  0.0000000000000D+00  0.0000000000000D+00
210  2.0900000000000D+00  0.0000000000000D+00  0.0000000000000D+00
211  2.1000000000000D+00  0.0000000000000D+00  0.0000000000000D+00
212  2.1100000000000D+00  0.0000000000000D+00  0.0000000000000D+00
213  2.1200000000000D+00  0.0000000000000D+00  0.0000000000000D+00
214  2.1300000000000D+00  0.0000000000000D+00  0.0000000000000D+00
215  2.1400000000000D+00  0.0000000000000D+00  0.0000000000000D+00
216  2.1500000000000D+00  0.0000000000000D+00  0.0000000000000D+00
217  2.1600000000000D+00  0.0000000000000D+00  0.0000000000000D+00
218  2.1700000000000D+00  0.0000000000000D+00  0.0000000000000D+00
219  2.1800000000000D+00  0.0000000000000D+00  0.0000000000000D+00
220  2.1900000000000D+00  0.0000000000000D+00  0.0000000000000D+00
221  2.2000000000000D+00  0.0000000000000D+00  0.0000000000000D+00
222  2.2100000000000D+00  0.0000000000000D+00  0.0000000000000D+00
223  2.2200000000000D+00  0.0000000000000D+00  0.0000000000000D+00
224  2.2300000000000D+00  0.0000000000000D+00  0.0000000000000D+00
225  2.2400000000000D+00  0.0000000000000D+00  0.0000000000000D+00
226  2.2500000000000D+00  0.0000000000000D+00  0.0000000000000D+00
227  2.2600000000000D+00  0.0000000000000D+00  0.0000000000000D+00
228  2.2700000000000D+00  0.0000000000000D+00  0.0000000000000D+00
229  2.2800000000000D+00  0.0000000000000D+00  0.0000000000000D+00
230  2.2900000000000D+00  0.0000000000000D+00  0.0000000000000D+00
231  2.3000000000000D+00  0.0000000000000D+00  0.0000000000000D+00
232  2.3100000000000D+00  0.0000000000000D+00  0.0000000000000D+00
233  2.3200000000000D+00  0.0000000000000D+00  0.0000000000000D+00
234  2.3300000000000D+00  0.0000000000000D+00  0.0000000000000D+00
235  2.3400000000000D+00  0.0000000000000D+00  0.0000000000000D+00
236  2.3500000000000D+00  0.0000000000000D+00  0.0000000000000D+00
237  2.3600000000000D+00  0.0000000000000D+00  0.0000000000000D+00
238  2.3700000000000D+00  0.0000000000000D+00  0.0000000000000D+00
239  2.3800000000000D+00  0.0000000000000D+00  0.0000000000000D+00
240  2.3900000000000D+00  0.0000000000000D+00  0.0000000000000D+00
241  2.4000000000000D+00  0.0000000000000D+00  0.0000000000000D+00
242  2.4100000000000D+00  0.0000000000000D+00  0.0000000000000D+00
243  2.4200000000000D+00  0.0000000000000D+00  0.0000000000000D+00
244  2.4300000000000D+00  0.0000000000000D+00  0.0000000000000D+00
245  2.4400000000000D+00  0.0000000000000D+00  0.0000000000000D+00
246  2.4500000000000D+00  0.0000000000000D+00  0.0000000000000D+00
247  2.4600000000000D+00  0.0000000000000D+00  0.0000000000000D+00
248  2.4700000000000D+00  0.0000000000000D+00  0.0000000000000D+00
249  2.4800000000000D+00  0.0000000000000D+00  0.0000000000000D+00
250  2.4900000000000D+00  0.0000000000000D+00  0.0000000000000D+00
251  2.5000000000000D+00  0.0000000000000D+00  0.0000000000000D+00
252  2.5100000000000D+00  0.0000000000000D+00  0.0000000000000D+00
253  2.5200000000000D+00  0.0000000000000D+00  0.0000000000000D+00
254  2.5300000000000D+00  0.0000000000000D+00  0.0000000000000D+00
255  2.5400000000000D+00  0.0000000000000D+00  0.0000000000000D+00
256  2.5500000000000D+00  0.0000000000000D+00  0.0000000000000D+00
257  2.5600000000000D+00  0.0000000000000D+00  0.0000000000000D+00
258  2.5700000000000D+00  0.0000000000000D+00  0.0000000000000D+00
259  2.5800000000000D+00  0.0000000000000D+00  0.0000000000000D+00
260  2.5900000000000D+00  0.0000000000000D+00  0.0000000000000D+00
261  2.6000000000000D+00  0.0000000000000D+00  0.0000000000000D+00
262  2.6100000000000D+00  0.0000000000000D+00  0.0000000000000D+00
263  2.6200000000000D+00  0.0000000000000D+00  0.0000000000000D+00
264  2.6300000000000D+00  0.0000000000000D+00  0.0000000000000D+00
265  2.6400000000000D+00  0.0000000000000D+00  0.0000000000000D+00
266  2.6500000000000D+00  0.0000000000000D+00  0.0000000000000D+00
267  2.6600000000000D+00  0.0000000000000D+00  0.0000000000000D+00
268  2.6700000000000D+00  0.0000000000000D+00  0.0000000000000D+00
269  2.6800000000000D+00  0.0000000000000D+00  0.0000000000000D+00
270  2.6900000000000D+00  0.0000000000000D+00  0.0000000000000D+00
271  2.7000000000000D+00  0.0000000000000D+00  0.0000000000000D+00
272  2.7100000000000D+00  0.0000000000000D+00  0.0000000000000D+00
273  2.7200000000000D+00  0.0000000000000D+00  0.0000000000000D+00
274  2.7300000000000D+00  0.0000000000000D+00  0.0000000000000D+00
275  2.7400000000000D+00  0.0000000000000D+00  0.0000000000000D+00
276  2.7500000000000D+00  0.0000000000000D+00  0.0000000000000D+00
277  2.7600000000000D+00  0.0000000000000D+00  0.0000000000000D+00
278  2.7700000000000D+00  0.0000000000000D+00  0.0000000000000D+00
279  2.7800000000000D+00  0.0000000000000D+00  0.0000000000000D+00
280  2.7900000000000D+00  0.0000000000000D+00  0.0000000000000D+00
281  2.8000000000000D+00  0.0000000000000D+00  0.0000000000000D+00
282  2.8100000000000D+00  0.0000000000000D+00  0.0000000000000D+00
283  2.8200000000000D+00  0.0000000000000D+00  0.0000000000000D+00
284  2.8300000000000D+00  0.0000000000000D+00  0.0000000000000D+00
285  2.8400000000000D+00  0.0000000000000D+00  0.0000000000000D+00
286  2.8500000000000D+00  0.0000000000000D+00  0.0000000000000D+00
287  2.8600000000000D+00  0.0000000000000D+00  0.0000000000000D+00
288  2.8700000000000D+00  0.0000000000000D+00  0.0000000000000D+00
289  2.8800000000000D+00  0.0000000000000D+00  0.0000000000000D+00
290  2.8900000000000D+00  0.0000000000000D+00  0.0000000000000D+00
291  2.9000000000000D+00  0.0000000000000D+00  0.0000000000000D+00
292  2.9100000000000D+00  0.0000000000000D+00  0.0000000000000D+00
293  2.9200000000000D+00  0.0000000000000D+00  0.0000000000000D+00
294  2.9300000000000D+00  0.0000000000000D+00  0.0000000000000D+00
295  2.9400000000000D+00  0.0000000000000D+00  0.0000000000000D+00
296  2.9500000000000D+00  0.0000000000000D+00  0.0000000000000D+00
297  2.9600000000000D+00  0.0000000000000D+00  0.0000000000000D+00
298  2.9700000000000D+00  0.0000000000000D+00  0.0000000000000D+00
299  2.9800000000000D+00  0.0000000000000D+00  0.0000000000000D+00
300  2.9900000000000D+00  0.0000000000000D+00  0.0000000000000D+00
301  3.0000000000000D+00  0.0000000000000D+00  0.0000000000000D+00
302  3.0100000000000D+00  0.0000000000000D+00  0.0000000000000D+00
303  3.0200000000000D+00  0.0000000000000D+00  0.0000000000000D+00
304  3.0300000000000D+00  0.0000000000000D+00  0.0000000000000D+00
305  3.0400000000000D+00  0.0000000000000D+00  0.0000000000000D+00
306  3.0500000000000D+00  0.0000000000000D+00  0.0000000000000D+00
307  3.0600000000000D+00  0.0000000000000D+00  0.0000000000000D+00
308  3.0700000000000D+00  0.0000000000000D+00  0.0000000000000D+00
309  3.0800000000000D+00  0.0000000000000D+00  0.0000000000000D+00
310  3.0900000000000D+00  0.0000000000000D+00  0.0000000000000D+00
311  3.1000000000000D+00  0.0000000000000D+00  0.0000000000000D+00
312  3.1100000000000D+00  0.0000000000000D+00  0.0000000000000D+00
313  3.1200000000000D+00  0.0000000000000D+00  0.0000000000000D+00
314  3.1300000000000D+00  0.0000000000000D+00  0.0000000000000D+00
315  3.1400000000000D+00  0.0000000000000D+00  0.0000000000000D+00
316  3.1500000000000D+00  0.0000000000000D+00  0.0000000000000D+00
317  3.1600000000000D+00  0.0000000000000D+00  0.0000000000000D+00
318  3.1700000000000D+00  0.0000000000000D+00  0.0000000000000D+00
319  3.1800000000000D+00  0.0000000000000D+00  0.0000000000000D+00
320  3.1900000000000D+00  0.0000000000000D+00  0.0000000000000D+00
321  3.2000000000000D+00  0.0000000000000D+00  0.0000000000000D+00
322  3.2100000000000D+00  0.0000000000000D+00  0.0000000000000D+00
323  3.2200000000000D+00  0.0000000000000D+00  0.0000000000000D+00
324  3.2300000000000D+00  0.0000000000000D+00  0.0000000000000D+00
325  3.2400000000000D+00  0.0000000000000D+00  0.0000000000000D+00
326  3.2500000000000D+00  0.0000000000000D+00  0.0000000000000D+00
327  3.2600000000000D+00  0.0000000000000D+00  0.0000000000000D+00
328  3.2700000000000D+00  0.0000000000000D+00  0.0000000000000D+00
329  3.2800000000000D+00  0.0000000000000D+00  0.0000000000000D+00
330  3.2900000000000D+00  0.0000000000000D+00  0.0000000000000D+00
331  3.3000000000000D+00  0.0000000000000D+00  0.0000000000000D+00
332  3.3100000000000D+00  0.0000000000000D+00  0.0000000000000D+00
333  3.3200000000000D+00  0.0000000000000D+00  0.0000000000000D+00
334  3.3300000000000D+00  0.0000000000000D+00  0.0000000000000D+00
335  3.3400000000000D+00  0.0000000000000D+00  0.0000000000000D+00
336  3.3500000000000D+00  0.0000000000000D+00  0.0000000000000D+00
337  3.3600000000000D+00  0.0000000000000D+00  0.0000000000000D+00
338  3.3700000000000D+00  0.0000000000000D+00  0.0000000000000D+00
339  3.3800000000000D+00  0.0000000000000D+00  0.0000000000000D+00
340  3.3900000000000D+00  0.0000000000000D+00  0.0000000000000D+00
341  3.4000000000000D+00  0.0000000000000D+00  0.0000000000000D+00
342  3.4100000000000D+00  0.0000000000000D+00  0.0000000000000D+00
343  3.4200000000000D+00  0.0000000000000D+00  0.0000000000000D+00
344  3.4300000000000D+00  0.0000000000000D+00  0.0000000000000D+00
345  3.4400000000000D+00  0.0000000000000D+00  0.0000000000000D+00
346  3.4500000000000D+00  0.0000000000000D+00  0.0000000000000D+00
347  3.4600000000000D+00  0.0000000000000D+00  0.0000000000000D+00
348  3.4700000000000D+00  0.0000000000000D+00  0.0000000000000D+00
349  3.4800000000000D+00  0.0000000000000D+00  0.0000000000000D+00
350  3.4900000000000D+00  0.0000000000000D+00  0.0000000000000D+00
351  3.5000000000000D+00  0.0000000000000D+00  0.0000000000000D+00
352  3.5100000000000D+00  0.0000000000000D+00  0.0000000000000D+00
353  3.5200000000000D+00  0.0000000000000D+00  0.0000000000000D+00
354  3.5300000000000D+00  0.0000000000000D+00  0.0000000000000D+00
355  3.5400000000000D+00  0.0000000000000D+00  0.0000000000000D+00
356  3.5500000000000D+00  0.0000000000000D+00  0.0000000000000D+00
357  3.5600000000000D+00  0.0000000000000D+00  0.0000000000000D+00
358  3.5700000000000D+00  0.0000000000000D+00  0.0000000000000D+00
359  3.5800000000000D+00  0.0000000000000D+00  0.0000000000000D+00
360  3.5900000000000D+00  0.0000000000000D+00  0.0000000000000D+00
361  3.6000000000000D+00  0.0000000000000D+00  0.0000000000000D+00
362  3.6100000000000D+00  0.0000000000000D+00  0.0000000000000D+00
363  3.6200000000000D+00  0.0000000000000D+00  0.0000000000000D+00
364  3.6300000000000D+00  0.0000000000000D+00  0.0000000000000D+00
365  3.6400000000000D+00  0.0000000000000D+00  0.0000000000000D+00
366  3.6500000000000D+00  0.0000000000000D+00  0.0000000000000D+00
367  3.6600000000000D+00  0.0000000000000D+00  0.0000000000000D+00
368  3.6700000000000D+00  0.0000000000000D+00  0.0000000000000D+00
369  3.6800000000000D+00  0.0000000000000D+00  0.0000000000000D+00
370  3.6900000000000D+00  0.0000000000000D+00  0.0000000000000D+00
371  3.7000000000000D+00  0.0000000000000D+00  0.0000000000000D+00
372  3.7100000000000D+00  0.0000000000000D+00  0.0000000000000D+00
373  3.7200000000000D+00  0.0000000000000D+00  0.0000000000000D+00
374  3.7300000000000D+00  0.0000000000000D+00  0.0000000000000D+00
375  3.7400000000000D+00  0.0000000000000D+00  0.0000000000000D+00
376  3.7500000000000D+00  0.0000000000000D+00  0.0000000000000D+00
377  3.7600000000000D+00  0.0000000000000D+00  0.0000000000000D+00
378  3.7700000000000D+00  0.0000000000000D+00  0.0000000000000D+00
379  3.7800000000000D+00  0.0000000000000D+00  0.0000000000000D+00
380  3.7900000000000D+00  0.0000000000000D+00  0.0000000000000D+00
381  3.8000000000000D+00  0.0000000000000D+00  0.0000000000000D+00
382  3.8100000000000D+00  0.0000000000000D+00  0.0000000000000D+00
383  3.8200000000000D+00  0.0000000000000D+00  0.0000000000000D+00
384  3.8300000000000D+00  0.0000000000000D+00  0.0000000000000D+00
385  3.8400000000000D+00  0.0000000000000D+00  0.0000000000000D+00
386  3.8500000000000D+00  0.0000000000000D+00  0.0000000000000D+00
387  3.8600000000000D+00  0.0000000000000D+00  0.0000000000000D+00
388  3.8700000000000D+00  0.0000000000000D+00  0.0000000000000D+00
389  3.8800000000000D+00  0.0000000000000D+00  0.0000000000000D+00
390  3.8900000000000D+00  0.0000000000000D+00  0.0000000000000D+00
391  3.9000000000000D+00  0.0000000000000D+00  0.0000000000000D+00
392  3.9100000000000D+00  0.0000000000000D+00  0.0000000000000D+00
393  3.9200000000000D+00  0.0000000000000D+00  0.0000000000000D+00
394  3.9300000000000D+00  0.0000000000000D+00  0.0000000000000D+00
395  3.9400000000000D+00  0.0000000000000D+00  0.0000000000000D+00
396  3.9500000000000D+00  0.0000000000000D+00  0.0000000000000D+00
397  3.9600000000000D+00  0.0000000000000D+00  0.0000000000000D+00
398  3.9700000000000D+00  0.0000000000000D+00  0.0000000000000D+00
399  3.9800000000000D+00  0.0000000000000D+00  0.0000000000000D+00
400  3.9900000000000D+00  0.0000000000000D+00  0.0000000000000D+00
401  4.0000000000000D+00  0.0000000000000D+00  0.0000000000000D+00
402  4.0100000000000D+00  0.0000000000000D+00  0.0000000000000D+00
403  4.0200000000000D+00  0.0000000000000D+00  0.0000000000000D+00
404  4.0300000000000D+00  0.0000000000000D+00  0.0000000000000D+00
405  4.0400000000000D+00  0.0000000000000D+00  0.0000000000000D+00
406  4.0500000000000D+00  0.0000000000000D+00  0.0000000000000D+00
407  4.0600000000000D+00  0.0000000000000D+00  0.0000000000000D+00
408  4.0700000000000D+00  0.0000000000000D+00  0.0000000000000D+00
409  4.0800000000000D+00  0.0000000000000D+00  0.0000000000000D+00
410  4.0900000000000D+00  0.0000000000000D+00  0.0000000000000D+00
411  4.1000000000000D+00  0.0000000000000D+00  0.0000000000000D+00
412  4.1100000000000D+00  0.0000000000000D+00  0.0000000000000D+00
413  4.1200000000000D+00  0.0000000000000D+00  0.0000000000000D+00
414  4.1300000000000D+00  0.0000000000000D+00  0.0000000000000D+00
415  4.1400000000000D+00  0.0000000000000D+00  0.0000000000000D+00
416  4.1500000000000D+00  0.0000000000000D+00  0.0000000000000D+00
417  4.1600000000000D+00  0.0000000000000D+00  0.0000000000000D+00
418  4.1700000000000D+00  0.0000000000000D+00  0.0000000000000D+00
419  4.1800000000000D+00  0.0000000000000D+00  0.0000000000000D+00
420  4.1900000000000D+00  0.0000000000000D+00  0.0000000000000D+00
421  4.2000000000000D+00  0.0000000000000D+00  0.0000000000000D+00
422  4.2100000000000D+00  0.0000000000000D+00  0.0000000000000D+00
423  4.2200000000000D+00  0.0000000000000D+00  0.0000000000000D+00
424  4.2300000000000D+00  0.0000000000000D+00  0.0000000000000D+00
425  4.2400000000000D+00  0.0000000000000D+00  0.0000000000000D+00
426  4.2500000000000D+00  0.0000000000000D+00  0.0000000000000D+00
427  4.2600000000000D+00  0.0000000000000D+00  0.0000000000000D+00
428  4.2700000000000D+00  0.0000000000000D+00  0.0000000000000D+00
429  4.2800000000000D+00  0.0000000000000D+00  0.0000000000000D+00
430  4.2900000000000D+00  0.0000000000000D+00  0.0000000000000D+00
431  4.3000000000000D+00  0.0000000000000D+00  0.0000000000000D+00
432  4.3100000000000D+00  0.0000000000000D+00  0.0000000000000D+00
433  4.3200000000000D+00  0.0000000000000D+00  0.0000000000000D+00
434  4.3300000000000D+00  0.0000000000000D+00  0.0000000000000D+00
435  4.3400000000000D+00  0.0000000000000D+00  0.0000000000000D+00
436  4.3500000000000D+00  0.0000000000000D+00  0.0000000000000D+00
437  4.3600000000000D+00  0.0000000000000D+00  0.0000000000000D+00
438  4.3700000000000D+00  0.0000000000000D+00  0.0000000000000D+00
439  4.3800000000000D+00  0.0000000000000D+00  0.0000000000000D+00
440  4.3900000000000D+00  0.0000000000000D+00  0.0000000000000D+00
441  4.4000000000000D+00  0.0000000000000D+00  0.0000000000000D+00
442  4.4100000000000D+00  0.0000000000000D+00  0.0000000000000D+00
443  4.4200000000000D+00  0.0000000000000D+00  0.0000000000000D+00