<?xml version="1.0" encoding="UTF-8" ?>
<psml version="1.1" energy_unit="hartree" length_unit="bohr"
 uuid="72b46720-5210-11e8-4ac7-4e247fff5193"
 xmlns="http://esl.cecam.org/PSML/ns/1.1">
<provenance creator="ONCVPSP-3.3.0+psml-3.3.0-73 (fully-relativistic)"
 date="2018-05-07">
<annotation action="semilocal-pseudopotential-generation"
 action-cont="projectors-generation" />
<input-file name="oncvpsp-input">
<![CDATA[# atsym z nc nv iexc psfile
Hf 72 9 5 4 both
# n l f
1 0 2.0
2 0 2.0
2 1 6.0
3 0 2.0
3 1 6.0
3 2 10.0
4 0 2.0
4 1 6.0
4 2 10.0
5 0 2.0
5 1 6.0
4 3 14.0
5 2 2.0
6 0 2.0
# lmax
3
# l rc ep ncon nbas qcut
0 1.55 0.0 4 8 7.5
1 1.6 0.0 4 8 8.0
2 1.4 0.0 4 8 9.2
3 1.6 0.0 4 8 11.4
# lloc lpopt rc5 dvloc0
4 5 1.3 0.0
# l nproj debl
0 2 1.0
1 2 1.0
2 2 1.0
3 2 1.5
# icmod fcfact
3 3 1.45
# epsh1 epsh2 depsh
-12.0 12.0 0.02
# rlmax drl
6.0 0.01
 0
]]>
</input-file>
</provenance>
<pseudo-atom-spec atomic-label="Hf" atomic-number="72" z-pseudo="26"
 flavor="Hamann&apos;s oncvpsp" relativity="dirac" spin-dft="no"
 core-corrections="yes">
<annotation pseudo-energy="-270.817196083" />
<exchange-correlation>
<annotation oncvpsp-xc-code="4" oncvpsp-xc-type="GGA -- Perdew-Burke-Ernzerhof" />
<libxc-info number-of-functionals="2">
<functional name="Perdew, Burke &amp; Ernzerhof (GGA)" type="exchange" id="101" />
<functional name="Perdew, Burke &amp; Ernzerhof (GGA)" type="correlation"
 id="130" />
</libxc-info>
</exchange-correlation>
<valence-configuration total-valence-charge="26">
<shell n="5" l="s" occupation="2" />
<shell n="5" l="p" occupation="6" />
<shell n="4" l="f" occupation="14" />
<shell n="5" l="d" occupation="2" />
<shell n="6" l="s" occupation="2" />
</valence-configuration>
</pseudo-atom-spec>
<grid npts="457">
<annotation type="sampled from oncvpsp log grid"
 recipe="r(i:1..N) = r1*exp(a*(i-1)) + r=0; resampled"
 recipe-cont="r1: scale; a: step" scale="0.694444444444E-05"
 step="0.119285708653E-01" delta="0.500000000000E-02" rmax="44.0200392416" />
<grid-data>
  0.000000000000E+00  5.026670407229E-03  1.004037965951E-02  1.506217053265E-02
  2.029552887432E-02  2.545834165589E-02  3.081188800123E-02  3.598031598865E-02
  4.102519090483E-02  4.622274527913E-02  5.146125203343E-02  5.661407921772E-02
  6.228286019135E-02  6.770677621320E-02  7.273027184416E-02  7.812648509314E-02
  8.392306969631E-02  8.908076201112E-02  9.455543260272E-02  1.003665621267E-01
  1.065348284690E-01  1.117412849051E-01  1.172021857236E-01  1.229299658586E-01
  1.289376679513E-01  1.352389720489E-01  1.418482267551E-01  1.470162864660E-01
  1.523726378587E-01  1.579241411011E-01  1.636779063026E-01  1.696413026204E-01
  1.758219676977E-01  1.822278174452E-01  1.888670561800E-01  1.957481871331E-01
  2.028800233396E-01  2.102716989265E-01  2.153484988254E-01  2.205478729811E-01
  2.258727808263E-01  2.313262532466E-01  2.369113943050E-01  2.426313830091E-01
  2.484894751204E-01  2.544890050078E-01  2.606333875447E-01  2.669261200535E-01
  2.733707842961E-01  2.799710485122E-01  2.867306695074E-01  2.936534947920E-01
  3.007434647703E-01  3.080046149837E-01  3.154410784079E-01  3.230570878049E-01
  3.308569781329E-01  3.388451890129E-01  3.470262672565E-01  3.554048694531E-01
  3.639857646212E-01  3.727738369222E-01  3.817740884408E-01  3.909916420322E-01
  4.004317442374E-01  4.100997682703E-01  4.200012170754E-01  4.250412316803E-01
  4.301417264604E-01  4.353034271780E-01  4.405270683041E-01  4.458133931238E-01
  4.511631538412E-01  4.565771116873E-01  4.620560370276E-01  4.676007094719E-01
  4.732119179856E-01  4.788904610014E-01  4.846371465334E-01  4.904527922918E-01
  4.963382257993E-01  5.022942845089E-01  5.083218159230E-01  5.144216777141E-01
  5.205947378467E-01  5.268418747008E-01  5.331639771972E-01  5.395619449236E-01
  5.460366882627E-01  5.525891285218E-01  5.592201980641E-01  5.659308404409E-01
  5.727220105262E-01  5.795946746525E-01  5.865498107483E-01  5.935884084773E-01
  6.007114693790E-01  6.079200070116E-01  6.152150470957E-01  6.225976276608E-01
  6.300687991928E-01  6.376296247831E-01  6.452811802805E-01  6.530245544439E-01
  6.608608490972E-01  6.687911792863E-01  6.768166734378E-01  6.849384735190E-01
  6.931577352013E-01  7.014756280237E-01  7.098933355600E-01  7.184120555867E-01
  7.270330002537E-01  7.357573962568E-01  7.445864850118E-01  7.535215228320E-01
  7.625637811060E-01  7.717145464792E-01  7.809751210370E-01  7.903468224894E-01
  7.998309843593E-01  8.094289561716E-01  8.191421036457E-01  8.289718088894E-01
  8.389194705961E-01  8.489865042433E-01  8.591743422942E-01  8.694844344017E-01
  8.799182476145E-01  8.904772665859E-01  9.011629937849E-01  9.119769497104E-01
  9.229206731069E-01  9.339957211842E-01  9.452036698384E-01  9.565461138764E-01
  9.680246672429E-01  9.796409632499E-01  9.913966548089E-01  1.003293414667E+00
  1.015332935643E+00  1.027516930870E+00  1.039847134041E+00  1.052325299649E+00
  1.064953203245E+00  1.077732641684E+00  1.090665433384E+00  1.103753418585E+00
  1.116998459608E+00  1.130402441123E+00  1.143967270417E+00  1.157694877662E+00
  1.171587216193E+00  1.185646262788E+00  1.199874017941E+00  1.214272506157E+00
  1.228843776230E+00  1.243589901545E+00  1.258512980364E+00  1.273615136128E+00
  1.288898517762E+00  1.304365299975E+00  1.320017683574E+00  1.335857895777E+00
  1.351888190527E+00  1.368110848813E+00  1.384528178999E+00  1.401142517147E+00
  1.417956227353E+00  1.434971702081E+00  1.452191362506E+00  1.469617658856E+00
  1.487253070762E+00  1.505100107611E+00  1.523161308903E+00  1.541439244609E+00
  1.559936515545E+00  1.578655753731E+00  1.597599622776E+00  1.616770818249E+00
  1.636172068068E+00  1.655806132885E+00  1.675675806480E+00  1.695783916157E+00
  1.716133323151E+00  1.736726923029E+00  1.757567646106E+00  1.778658457859E+00
  1.800002359353E+00  1.821602387665E+00  1.843461616317E+00  1.865583155713E+00
  1.887970153582E+00  1.910625795425E+00  1.933553304970E+00  1.956755944629E+00
  1.980237015965E+00  2.003999860157E+00  2.028047858478E+00  2.052384432780E+00
  2.077013045974E+00  2.101937202525E+00  2.127160448956E+00  2.152686374343E+00
  2.178518610835E+00  2.204660834165E+00  2.231116764175E+00  2.257890165345E+00
  2.284984847329E+00  2.312404665497E+00  2.340153521483E+00  2.368235363741E+00
  2.396654188106E+00  2.425414038363E+00  2.454519006824E+00  2.483973234905E+00
  2.513780913724E+00  2.543946284689E+00  2.574473640105E+00  2.605367323787E+00
  2.636631731672E+00  2.668271312452E+00  2.700290568202E+00  2.732694055020E+00
  2.765486383680E+00  2.798672220284E+00  2.832256286928E+00  2.866243362371E+00
  2.900638282719E+00  2.935445942112E+00  2.970671293417E+00  3.006319348938E+00
  3.042395181126E+00  3.078903923299E+00  3.115850770379E+00  3.153240979623E+00
  3.191079871379E+00  3.229372829835E+00  3.268125303793E+00  3.307342807439E+00
  3.347030921128E+00  3.387195292182E+00  3.427841635688E+00  3.468975735316E+00
  3.510603444140E+00  3.552730685469E+00  3.595363453695E+00  3.638507815139E+00
  3.682169908921E+00  3.726355947828E+00  3.771072219202E+00  3.816325085833E+00
  3.862120986863E+00  3.908466438705E+00  3.955368035969E+00  4.002832452401E+00
  4.050866441830E+00  4.099476839132E+00  4.148670561201E+00  4.198454607936E+00
  4.248836063231E+00  4.299822095990E+00  4.351419961142E+00  4.403637000675E+00
  4.456480644683E+00  4.509958412420E+00  4.564077913369E+00  4.618846848329E+00
  4.674273010509E+00  4.730364286635E+00  4.787128658075E+00  4.844574201972E+00
  4.902709092395E+00  4.961541601504E+00  5.021080100722E+00  5.081333061931E+00
  5.142309058674E+00  5.204016767378E+00  5.266464968587E+00  5.329662548210E+00
  5.393618498788E+00  5.458341920774E+00  5.523842023823E+00  5.590128128109E+00
  5.657209665646E+00  5.725096181634E+00  5.793797335813E+00  5.863322903843E+00
  5.933682778689E+00  6.004886972034E+00  6.076945615698E+00  6.149868963086E+00
  6.223667390643E+00  6.298351399331E+00  6.373931616123E+00  6.450418795517E+00
  6.527823821063E+00  6.606157706915E+00  6.685431599398E+00  6.765656778591E+00
  6.846844659934E+00  6.929006795854E+00  7.012154877404E+00  7.096300735933E+00
  7.181456344764E+00  7.267633820901E+00  7.354845426752E+00  7.443103571873E+00
  7.532420814735E+00  7.622809864512E+00  7.714283582886E+00  7.806854985881E+00
  7.900537245711E+00  7.995343692660E+00  8.091287816972E+00  8.188383270776E+00
  8.286643870025E+00  8.386083596465E+00  8.486716599623E+00  8.588557198818E+00
  8.691619885204E+00  8.795919323827E+00  8.901470355712E+00  9.008287999981E+00
  9.116387455981E+00  9.225784105453E+00  9.336493514718E+00  9.448531436895E+00
  9.561913814137E+00  9.676656779907E+00  9.792776661266E+00  9.910289981201E+00
  1.002921346098E+01  1.014956402251E+01  1.027135879078E+01  1.039461509627E+01
  1.051935047742E+01  1.064558268315E+01  1.077332967535E+01  1.090260963145E+01
  1.103344094703E+01  1.116584223839E+01  1.129983234526E+01  1.143543033340E+01
  1.157265549740E+01  1.171152736337E+01  1.185206569173E+01  1.199429048003E+01
  1.213822196579E+01  1.228388062938E+01  1.243128719693E+01  1.258046264329E+01
  1.273142819501E+01  1.288420533335E+01  1.303881579735E+01  1.319528158692E+01
  1.335362496597E+01  1.351386846556E+01  1.367603488714E+01  1.384014730579E+01
  1.400622907346E+01  1.417430382234E+01  1.434439546821E+01  1.451652821383E+01
  1.469072655239E+01  1.486701527102E+01  1.504541945427E+01  1.522596448773E+01
  1.540867606158E+01  1.559358017432E+01  1.578070313641E+01  1.597007157405E+01
  1.616171243293E+01  1.635565298213E+01  1.655192081792E+01  1.675054386773E+01
  1.695155039414E+01  1.715496899887E+01  1.736082862686E+01  1.756915857038E+01
  1.777998847323E+01  1.799334833491E+01  1.820926851492E+01  1.842777973710E+01
  1.864891309395E+01  1.887270005108E+01  1.909917245169E+01  1.932836252111E+01
  1.956030287136E+01  1.979502650582E+01  2.003256682389E+01  2.027295762577E+01
  2.051623311728E+01  2.076242791469E+01  2.101157704967E+01  2.126371597426E+01
  2.151888056596E+01  2.177710713275E+01  2.203843241834E+01  2.230289360736E+01
  2.257052833065E+01  2.284137467062E+01  2.311547116666E+01  2.339285682066E+01
  2.367357110251E+01  2.395765395574E+01  2.424514580321E+01  2.453608755285E+01
  2.483052060348E+01  2.512848685072E+01  2.543002869293E+01  2.573518903725E+01
  2.604401130570E+01  2.635653944136E+01  2.667281791466E+01  2.699289172964E+01
  2.731680643039E+01  2.764460810756E+01  2.797634340485E+01  2.831205952571E+01
  2.865180424001E+01  2.899562589089E+01  2.934357340158E+01  2.969569628240E+01
  3.005204463779E+01  3.041266917345E+01  3.077762120353E+01  3.114695265797E+01
  3.152071608987E+01  3.189896468294E+01  3.228175225914E+01  3.266913328625E+01
  3.306116288568E+01  3.345789684031E+01  3.385939160240E+01  3.426570430162E+01
  3.467689275324E+01  3.509301546628E+01  3.551413165188E+01  3.594030123170E+01
  3.637158484648E+01  3.680804386464E+01  3.724974039101E+01  3.769673727571E+01
  3.814909812302E+01  3.860688730049E+01  3.907016994810E+01  3.953901198747E+01
  4.001348013132E+01  4.049364189290E+01  4.097956559561E+01  4.147132038276E+01
  4.196897622736E+01  4.247260394208E+01  4.298227518939E+01  4.349806249166E+01
  4.402003924156E+01
</grid-data>
</grid>
<valence-charge total-charge="26" is-unscreening-charge="yes"
 rescaled-to-z-pseudo="no">
<radfunc>
<data npts="457">
  1.918526036612E-01  1.921912623905E-01  1.932040030690E-01  1.948948995160E-01
  1.973791318663E-01  2.005547524583E-01  2.046125199662E-01  2.092751124102E-01
  2.145407148250E-01  2.207158125806E-01  2.277263921685E-01  2.354142033577E-01
  2.448114059021E-01  2.547649092268E-01  2.648666481003E-01  2.767203582938E-01
  2.906909029753E-01  3.042834447175E-01  3.200114203846E-01  3.383070142397E-01
  3.597202856946E-01  3.795642533757E-01  4.023078666369E-01  4.285151919191E-01
  4.588874175824E-01  4.942994448712E-01  5.358461686882E-01  5.718457457066E-01
  6.127664259131E-01  6.594450428892E-01  7.128748575318E-01  7.742344472669E-01
  8.449213735548E-01  9.265912019089E-01  1.021202439154E+00  1.131067906784E+00
  1.258912972119E+00  1.407940891812E+00  1.520889723202E+00  1.646172652807E+00
  1.785189186159E+00  1.939485691803E+00  2.110767239287E+00  2.300909586800E+00
  2.511971109612E+00  2.746204404455E+00  3.006067240381E+00  3.294232452679E+00
  3.613596293056E+00  3.967284656186E+00  4.358656500553E+00  4.791303670837E+00
  5.269046211753E+00  5.795922141406E+00  6.376170529462E+00  7.014206606384E+00
  7.714587520769E+00  8.481967270336E+00  9.321039268069E+00  1.023646498024E+01
  1.123278710147E+01  1.231432582972E+01  1.348505698975E+01  1.474847104613E+01
  1.610741246851E+01  1.756389948294E+01  1.911892498413E+01  1.993336668110E+01
  2.077224031145E+01  2.163528296462E+01  2.252212471962E+01  2.343228096624E+01
  2.436514470583E+01  2.531997889253E+01  2.629590888331E+01  2.729191507244E+01
  2.830682579381E+01  2.933931058158E+01  3.038787388766E+01  3.145084936142E+01
  3.252639480406E+01  3.361248791652E+01  3.470692296552E+01  3.580730849748E+01
  3.691106623348E+01  3.801543128163E+01  3.911745380395E+01  4.021400227439E+01
  4.130176846233E+01  4.237727427069E+01  4.343688055108E+01  4.447679800835E+01
  4.549310029395E+01  4.648173937207E+01  4.743856322299E+01  4.835933592566E+01
  4.923976013557E+01  5.007550194426E+01  5.086221807370E+01  5.159558532268E+01
  5.227133214218E+01  5.288527217486E+01  5.343333954836E+01  5.391162566566E+01
  5.431641718741E+01  5.464423485269E+01  5.489187273634E+01  5.505643749453E+01
  5.513538710555E+01  5.512656857322E+01  5.502825402441E+01  5.483917460408E+01
  5.455855155060E+01  5.418612382291E+01  5.372217165107E+01  5.316753539381E+01
  5.252362911220E+01  5.179244830844E+01  5.097657133404E+01  5.007915404258E+01
  4.910391734844E+01  4.805512745531E+01  4.693756863441E+01  4.575650856219E+01
  4.451765636828E+01  4.322711369408E+01  4.189131921799E+01  4.051698726092E+01
  3.911104124134E+01  3.768054289858E+01  3.623261834110E+01  3.477438209834E+01
  3.331286045553E+01  3.185491542588E+01  3.040717075865E+01  2.897594139266E+01
  2.756716773746E+01  2.618635609942E+01  2.483852646426E+01  2.352816870378E+01
  2.225920809356E+01  2.103498081513E+01  1.985821987534E+01  1.873105161435E+01
  1.765500270093E+01  1.663101723745E+01  1.565948332849E+01  1.474026821608E+01
  1.387276086096E+01  1.305592066305E+01  1.228833087338E+01  1.156825515981E+01
  1.089369575521E+01  1.026245164016E+01  9.672175291629E+00  9.120426660836E+00
  8.604723220494E+00  8.122585135058E+00  7.671574846144E+00  7.249330616982E+00
  6.853593831518E+00  6.482230083290E+00  6.133244304967E+00  5.804790372209E+00
  5.495175758228E+00  5.202861914115E+00  4.926461103436E+00  4.664730430334E+00
  4.416563598318E+00  4.180980478330E+00  3.957115366256E+00  3.744206048493E+00
  3.541583516492E+00  3.348661577967E+00  3.164927182414E+00  2.989931371292E+00
  2.823280933963E+00  2.664631026453E+00  2.513679442397E+00  2.370161923389E+00
  2.233843434996E+00  2.104501892914E+00  1.981910885899E+00  1.865838012951E+00
  1.756048928162E+00  1.652307002701E+00  1.554374563099E+00  1.462013834771E+00
  1.374987851178E+00  1.293061304218E+00  1.216001333337E+00  1.143578252056E+00
  1.075566211149E+00  1.011743798264E+00  9.518945743189E-01  8.958075474654E-01
  8.432775858835E-01  7.941057710425E-01  7.480996934382E-01  7.050736931305E-01
  6.648490476663E-01  6.272541102507E-01  5.921244011680E-01  5.593026556629E-01
  5.286388315853E-01  4.999900801915E-01  4.732206835286E-01  4.482019618327E-01
  4.248121543221E-01  4.029362766842E-01  3.824659584253E-01  3.632992630898E-01
  3.453404941541E-01  3.284999891794E-01  3.126939045691E-01  2.978439930306E-01
  2.838773756066E-01  2.707263099199E-01  2.583279560782E-01  2.466241415237E-01
  2.355611259736E-01  2.250893674765E-01  2.151632905858E-01  2.057410574871E-01
  1.967843429440E-01  1.882581138364E-01  1.801304140398E-01  1.723721552664E-01
  1.649569145094E-01  1.578607385964E-01  1.510619562999E-01  1.445409983672E-01
  1.382802257460E-01  1.322637662043E-01  1.264773594605E-01  1.209082108691E-01
  1.155448536418E-01  1.103770195226E-01  1.053955177852E-01  1.005921223773E-01
  9.595946699692E-02  9.149094785811E-02  8.718063387511E-02  8.302318397792E-02
  7.901377125548E-02  7.514801361343E-02  7.142191062677E-02  6.783178626512E-02
  6.437423716824E-02  6.104608615269E-02  5.784434063580E-02  5.476615567063E-02
  5.180880129499E-02  4.896963390835E-02  4.624607140228E-02  4.363557178258E-02
  4.113561503419E-02  3.874368799229E-02  3.645727199555E-02  3.427383310803E-02
  3.219081470670E-02  3.020563223939E-02  2.831566996427E-02  2.651827949731E-02
  2.481077996484E-02  2.319045961587E-02  2.165457870304E-02  2.020037346497E-02
  1.882506104112E-02  1.752584515325E-02  1.629992239111E-02  1.514448894580E-02
  1.405674764050E-02  1.303391511706E-02  1.207322904653E-02  1.117195524316E-02
  1.032739457396E-02  9.536889568918E-03  8.797830651339E-03  8.107661921394E-03
  7.463886440300E-03  6.864070975871E-03  6.305850183145E-03  5.786930205697E-03
  5.305091694092E-03  4.858192247633E-03  4.444168293950E-03  4.061036428084E-03
  3.706894238591E-03  3.379920652804E-03  3.078375836857E-03  2.800600688466E-03
  2.545015961908E-03  2.310121065158E-03  2.094492568993E-03  1.896782466987E-03
  1.715716223951E-03  1.550090648559E-03  1.398771623653E-03  1.260691725438E-03
  1.134847760026E-03  1.020298243356E-03  9.161608431835E-04  8.216098346131E-04
  7.358734699415E-04  6.582315140269E-04  5.880129039078E-04  5.245926394829E-04
  4.673899927818E-04  4.158661217779E-04  3.695215441142E-04  3.278939678089E-04
  2.905561690051E-04  2.571139132155E-04  2.272039543419E-04  2.004921102056E-04
  1.766714149406E-04  1.554603482096E-04  1.366011409070E-04  1.198581567744E-04
  1.050163491696E-04  9.187979206831E-05  8.027028424565E-05  7.002602545993E-05
  6.100036334157E-05  5.306060957638E-05  4.608692385558E-05  3.997126394910E-05
  3.461640014299E-05  2.993499216818E-05  2.584872663818E-05  2.228751291034E-05
  1.918873519076E-05  1.649655861985E-05  1.416128700498E-05  1.213876981037E-05
  1.038985597402E-05  8.879892096333E-06  7.578262536819E-06  6.457968962717E-06
  5.495246915950E-06  4.669217002306E-06  3.961568357210E-06  3.356272105080E-06
  2.839322602366E-06  2.398504336467E-06  2.023182442279E-06  1.704114893495E-06
  1.433284525533E-06  1.203749149658E-06  1.009508122095E-06  8.453838366018E-07
  7.069167128584E-07  5.902723552974E-07  4.921596567172E-07  4.097587175870E-07
  3.406575447276E-07  2.827965816393E-07  2.344202067956E-07  1.940344154967E-07
  1.603699752518E-07  1.323504140634E-07  1.090642654460E-07  8.974105358433E-08
  7.373055686007E-08  6.048493819911E-08  4.954337652165E-08  4.051887522480E-08
  3.308696133300E-08  2.697602296027E-08  2.195906329314E-08  1.784667667757E-08
  1.448107682715E-08  1.173102890832E-08  9.487556536633E-09  7.660311762189E-09
  6.174511145116E-09  4.968354224743E-09  3.990852255783E-09  3.200005195274E-09
  2.561273735061E-09  2.046300832930E-09  1.631843834543E-09  1.298884019192E-09
  1.031885354367E-09  8.181785051565E-10  6.474498025398E-10  5.113180075432E-10
  4.029843855691E-10  3.169438880272E-10  2.487471807289E-10  1.948049076239E-10
  1.522269757436E-10  1.186908287232E-10  9.233367338534E-11  7.166446365410E-11
  5.549215207227E-11  4.286731155423E-11  3.303472611721E-11  2.539496405622E-11
  1.947329308431E-11  1.489458519216E-11  1.136309861595E-11  8.646223172031E-12
  6.561439954887E-12  4.965882607983E-12  3.747999803421E-12  2.820911167690E-12
  2.117125032987E-12  1.584348911937E-12  1.182174927239E-12  8.794627198363E-13
  5.816018714331E-13  4.310541254038E-13  3.184739748646E-13  2.345445948807E-13
  1.721686119298E-13  6.287985221895E-16  4.088397987065E-16  2.645301475346E-16
  1.703146932468E-16  1.091084182932E-16  6.954526290876E-17  4.410152592710E-17
  2.782209106387E-17  1.746018600649E-17  1.089942668206E-17  6.767475101826E-18
  4.179169311947E-18  2.566641518016E-18  1.567558416323E-18  9.519990134017E-19
  5.748759402883E-19  3.451492302613E-19  2.060177974324E-19  1.222467084802E-19
  7.210633066786E-20  4.227486354091E-20  2.463383705036E-20  1.426563139934E-20
  8.209688585004E-21  4.694684329477E-21  2.667454465389E-21  1.505792114757E-21
  8.444549356768E-22  4.704322106189E-22  2.603106686717E-22  1.430625723109E-22
  7.808427525377E-23  4.232222548911E-23  2.277739816585E-23  1.217118981318E-23
  6.456813691168E-24  0.000000000000E+00  0.000000000000E+00  0.000000000000E+00
  0.000000000000E+00
</data>
</radfunc>
</valence-charge>
<pseudocore-charge matching-radius="0.653024554444"
 number-of-continuous-derivatives="4">
<annotation model-charge-form="Teter function with specified parameters" />
<radfunc>
<data npts="290">
  1.702380575629E+02  1.702229003648E+02  1.701775925365E+02  1.701020106246E+02
  1.699911230343E+02  1.698496639620E+02  1.696694237592E+02  1.694630985280E+02
  1.692311912354E+02  1.689608620710E+02  1.686562986739E+02  1.683254321799E+02
  1.679258018740E+02  1.675087109026E+02  1.670923354329E+02  1.666130863553E+02
  1.660616828946E+02  1.655394716278E+02  1.649529427373E+02  1.642944367566E+02
  1.635554524780E+02  1.629000256027E+02  1.621818116687E+02  1.613951078506E+02
  1.605337587560E+02  1.595911346054E+02  1.585601117147E+02  1.577242602183E+02
  1.568309884063E+02  1.558767167894E+02  1.548576988995E+02  1.537700226487E+02
  1.526096135804E+02  1.513722403551E+02  1.500535228569E+02  1.486489433473E+02
  1.471538611412E+02  1.455635313215E+02  1.444480154823E+02  1.432865794989E+02
  1.420777731514E+02  1.408201450892E+02  1.395122483642E+02  1.381526466005E+02
  1.367399208424E+02  1.352726771246E+02  1.337495548032E+02  1.321692356917E+02
  1.305304540378E+02  1.288320073788E+02  1.270727683068E+02  1.252516971716E+02
  1.233678557418E+02  1.214204218378E+02  1.194087049396E+02  1.173321627628E+02
  1.151904187817E+02  1.129832806610E+02  1.107107595437E+02  1.083730901173E+02
  1.059707513598E+02  1.035044878388E+02  1.009753314085E+02  9.838462311473E+01
  9.573403508464E+01  9.302559213734E+01  9.026169281013E+01  8.885980370577E+01
  8.744512945201E+01  8.601808370571E+01  8.457910698976E+01  8.312866717536E+01
  8.166725992517E+01  8.019540909288E+01  7.871366707487E+01  7.722261510932E+01
  7.572286351804E+01  7.421505188593E+01  7.269984917345E+01  7.117795375634E+01
  6.965009338781E+01  6.811702507769E+01  6.657953488305E+01  6.503843760498E+01
  6.349457638606E+01  6.194882220304E+01  6.040207324952E+01  5.885525420322E+01
  5.730931537293E+01  5.576523172011E+01  5.422400175051E+01  5.268664627148E+01
  5.115420701092E+01  4.962774509432E+01  4.810833937667E+01  4.659708462684E+01
  4.509508956225E+01  4.360347473269E+01  4.212337025274E+01  4.065591338311E+01
  3.920224596207E+01  3.776351168929E+01  3.634085326527E+01  3.493540939094E+01
  3.354831163294E+01  3.218068116159E+01  3.083362536994E+01  2.950823438349E+01
  2.820557747195E+01  2.692669937567E+01  2.567261656111E+01  2.444431342121E+01
  2.324273843825E+01  2.206880032821E+01  2.092336418734E+01  1.980724766329E+01
  1.872121717439E+01  1.766598420230E+01  1.664220168452E+01  1.565046053429E+01
  1.469128631665E+01  1.376513611014E+01  1.287239558424E+01  1.201337632309E+01
  1.118831342626E+01  1.039736341682E+01  9.640602486893E+00  8.918025109690E+00
  8.229543045863E+00  7.574984770456E+00  6.954095344525E+00  6.366536753081E+00
  5.811888727995E+00  5.289650071108E+00  4.799240488921E+00  4.340002945914E+00
  3.911206538829E+00  3.512049889099E+00  3.141665045125E+00  2.799121880300E+00
  2.483432966603E+00  2.193558897374E+00  1.928414026490E+00  1.686872584845E+00
  1.467775128713E+00  1.269935268532E+00  1.092146620872E+00  9.331899210115E-01
  7.918402288247E-01  6.668741566074E-01  5.570770442702E-01  4.612500050637E-01
  3.782167638318E-01  3.068302097994E-01  2.459785872028E-01  1.945912497212E-01
  1.516439087305E-01  1.161633108915E-01  8.723128749294E-02  6.398812626047E-02
  4.563522592152E-02  3.143700457522E-02  2.072204468181E-02  1.288347006333E-02
  7.378563451245E-03  3.727646550876E-03  1.512258008399E-03  3.726777312909E-04
  4.858376667025E-06  1.568361282012E-04  6.247027784037E-04  1.248229283186E-03
  1.906237054031E-03  2.511817037292E-03  3.007497894947E-03  3.360463211353E-03
  3.557913552402E-03  3.602662434037E-03  3.509045950690E-03  3.299214205281E-03
  2.999859104468E-03  2.639417962152E-03  2.245776199314E-03  1.844475813390E-03
  1.457419835250E-03  1.102047335721E-03  7.909393170063E-04  5.318036176612E-04
  3.277772914546E-04  1.779782057974E-04  7.823412893793E-05  2.191746712979E-05
  8.170339015018E-07  5.984566809758E-06  2.850276237239E-05  6.013282794793E-05
  9.381226792772E-05  1.239870526172E-04  1.467756339730E-04  1.599746490222E-04
  1.629268258808E-04  1.562799320059E-04  1.416711005091E-04  1.213732677297E-04
  9.793971933304E-05  7.387908337106E-05  5.138697111370E-05  3.215249544962E-05
  1.724888680360E-05  7.108252599010E-06  1.572063268569E-06  1.986731112305E-09
  1.430861534865E-06  4.731293894029E-06  8.779708086594E-06  1.259650415879E-05
  1.544783696573E-05  1.690075463351E-05  1.683020183247E-05  1.538283346220E-05
  1.290788717045E-05  9.868884297030E-06  6.751277695160E-06  3.980260028163E-06
  1.860028951466E-06  5.414069559028E-07  1.957586344821E-08  0.000000000000E+00
  0.000000000000E+00  0.000000000000E+00  0.000000000000E+00  0.000000000000E+00
  0.000000000000E+00  0.000000000000E+00  0.000000000000E+00  0.000000000000E+00
  0.000000000000E+00  0.000000000000E+00  0.000000000000E+00  0.000000000000E+00
  0.000000000000E+00  0.000000000000E+00  0.000000000000E+00  0.000000000000E+00
  0.000000000000E+00  0.000000000000E+00  0.000000000000E+00  0.000000000000E+00
  0.000000000000E+00  0.000000000000E+00  0.000000000000E+00  0.000000000000E+00
  0.000000000000E+00  0.000000000000E+00  0.000000000000E+00  0.000000000000E+00
  0.000000000000E+00  0.000000000000E+00  0.000000000000E+00  0.000000000000E+00
  0.000000000000E+00  0.000000000000E+00  0.000000000000E+00  0.000000000000E+00
  0.000000000000E+00  0.000000000000E+00  0.000000000000E+00  0.000000000000E+00
  0.000000000000E+00  0.000000000000E+00  0.000000000000E+00  0.000000000000E+00
  0.000000000000E+00  0.000000000000E+00  0.000000000000E+00  0.000000000000E+00
  0.000000000000E+00  0.000000000000E+00  0.000000000000E+00  0.000000000000E+00
  0.000000000000E+00  0.000000000000E+00  0.000000000000E+00  0.000000000000E+00
  0.000000000000E+00  0.000000000000E+00  0.000000000000E+00  0.000000000000E+00
  0.000000000000E+00  0.000000000000E+00
</data>
</radfunc>
</pseudocore-charge>
<semilocal-potentials set="scalar_relativistic">
<slps n="5" l="s" rc="1.55993651554">
<radfunc>
<data npts="290">
  9.541462840746E+00  9.526275529933E+00  9.480930811679E+00  9.405464113985E+00
  9.295143733758E+00  9.155091287578E+00  8.977743546334E+00  8.776227396669E+00
  8.551611648394E+00  8.292267872735E+00  8.003237806372E+00  7.692972047557E+00
  7.323297414045E+00  6.943265192873E+00  6.569653921429E+00  6.146591107712E+00
  5.668813523557E+00  5.224943690468E+00  4.736102357887E+00  4.199119566195E+00
  3.610922635456E+00  3.101540992157E+00  2.556174974042E+00  1.973624362094E+00
  1.352881378414E+00  6.931724141431E-01 -5.999026495282E-03 -5.563942034766E-01
 -1.129036439320E+00 -1.723744707616E+00 -2.340205681162E+00 -2.977966233956E+00
 -3.636427205247E+00 -4.314838659563E+00 -5.012296856277E+00 -5.727743110373E+00
 -6.459964682445E+00 -7.207597780832E+00 -7.713842069583E+00 -8.225785873124E+00
 -8.742920993379E+00 -9.264714288208E+00 -9.790609141500E+00 -1.032002705983E+01
 -1.085236937521E+01 -1.138701903128E+01 -1.192334242874E+01 -1.246069130501E+01
 -1.299840462309E+01 -1.353581044604E+01 -1.407222777592E+01 -1.460696834002E+01
 -1.513933831300E+01 -1.566863997051E+01 -1.619417327821E+01 -1.671523742938E+01
 -1.723113235284E+01 -1.774116021962E+01 -1.824462697922E+01 -1.874084395104E+01
 -1.922912948086E+01 -1.970881064262E+01 -2.017922492211E+01 -2.063972176280E+01
 -2.108966379556E+01 -2.152842752695E+01 -2.195540324887E+01 -2.216428360222E+01
 -2.236999397648E+01 -2.257246138971E+01 -2.277161333731E+01 -2.296737767801E+01
 -2.315968251287E+01 -2.334845606151E+01 -2.353362653992E+01 -2.371512204418E+01
 -2.389287044389E+01 -2.406679928857E+01 -2.423683572865E+01 -2.440290645205E+01
 -2.456493763520E+01 -2.472285490641E+01 -2.487658331829E+01 -2.502604732513E+01
 -2.517117076078E+01 -2.531187681342E+01 -2.544808799430E+01 -2.557972609967E+01
 -2.570671216755E+01 -2.582896643389E+01 -2.594640829622E+01 -2.605895629636E+01
 -2.616652813689E+01 -2.626904074944E+01 -2.636641043422E+01 -2.645855309168E+01
 -2.654538456555E+01 -2.662682111429E+01 -2.670278002202E+01 -2.677318035292E+01
 -2.683794384255E+01 -2.689699590813E+01 -2.695026674665E+01 -2.699769247721E+01
 -2.703921627281E+01 -2.707478941928E+01 -2.710437223611E+01 -2.712793479706E+01
 -2.714545739838E+01 -2.715693073766E+01 -2.716235578762E+01 -2.716174337146E+01
 -2.715511346989E+01 -2.714249430942E+01 -2.712392129619E+01 -2.709943586615E+01
 -2.706908432239E+01 -2.703291672144E+01 -2.699098585712E+01 -2.694334637242E+01
 -2.689005401125E+01 -2.683116500420E+01 -2.676673556756E+01 -2.669682148444E+01
 -2.662147773143E+01 -2.654075811308E+01 -2.645471487105E+01 -2.636339824209E+01
 -2.626685594998E+01 -2.616513263017E+01 -2.605826919986E+01 -2.594630220200E+01
 -2.582926316622E+01 -2.570717804317E+01 -2.558006677881E+01 -2.544794310129E+01
 -2.531081459191E+01 -2.516868310275E+01 -2.502154556429E+01 -2.486939519676E+01
 -2.471222310010E+01 -2.455002015114E+01 -2.438277909053E+01 -2.421049664161E+01
 -2.403317548078E+01 -2.385082588237E+01 -2.366346690030E+01 -2.347112702666E+01
 -2.327384438222E+01 -2.307166663134E+01 -2.286465095167E+01 -2.265286449420E+01