<?xml version="1.0" encoding="UTF-8" ?>
<psml version="1.1" energy_unit="hartree" length_unit="bohr"
 uuid="ef5ce120-43c5-11e8-52b7-941cdeae41d4"
 xmlns="http://esl.cecam.org/PSML/ns/1.1">
<provenance creator="ONCVPSP-3.3.0+psml-3.3.0-73 (fully-relativistic)"
 date="2018-04-19">
<annotation action="semilocal-pseudopotential-generation"
 action-cont="projectors-generation" />
<input-file name="oncvpsp-input">
<![CDATA[# atsym z nc nv iexc psfile
Hf 72 10 4 4 both
# n l f
1 0 2.0
2 0 2.0
2 1 6.0
3 0 2.0
3 1 6.0
3 2 10.0
4 0 2.0
4 1 6.0
4 2 10.0
4 3 14.0
5 0 2.0
5 1 6.0
5 2 2.0
6 0 2.0
# lmax
3
# l rc ep ncon nbas qcut
0 1.7 0.0 4 8 7.0
1 1.7 0.0 4 8 7.4
2 1.7 0.0 4 9 6.6
3 2.4 0.5 4 8 6.8
# lloc lpopt rc5 dvloc0
4 5 1.7 0.0
# l nproj debl
0 2 2.0
1 2 1.5
2 2 1.8
3 2 2.5
# icmod fcfact rcfact
3 5.4 1.36
# epsh1 epsh2 depsh
-12.0 12.0 0.02
# rlmax drl
6.0 0.01
 0
]]>
</input-file>
</provenance>
<pseudo-atom-spec atomic-label="Hf" atomic-number="72" z-pseudo="12"
 flavor="Hamann&apos;s oncvpsp" relativity="dirac" spin-dft="no"
 core-corrections="yes">
<annotation pseudo-energy="-49.9070280102" />
<exchange-correlation>
<annotation oncvpsp-xc-code="4" oncvpsp-xc-type="GGA -- Perdew-Burke-Ernzerhof" />
<libxc-info number-of-functionals="2">
<functional name="Perdew, Burke &amp; Ernzerhof (GGA)" type="exchange" id="101" />
<functional name="Perdew, Burke &amp; Ernzerhof (GGA)" type="correlation"
 id="130" />
</libxc-info>
</exchange-correlation>
<valence-configuration total-valence-charge="12">
<shell n="5" l="s" occupation="2" />
<shell n="5" l="p" occupation="6" />
<shell n="5" l="d" occupation="2" />
<shell n="6" l="s" occupation="2" />
</valence-configuration>
</pseudo-atom-spec>
<grid npts="457">
<annotation type="sampled from oncvpsp log grid"
 recipe="r(i:1..N) = r1*exp(a*(i-1)) + r=0; resampled"
 recipe-cont="r1: scale; a: step" scale="0.694444444444E-05"
 step="0.119285708653E-01" delta="0.500000000000E-02" rmax="44.0200392416" />
<grid-data>
  0.000000000000E+00  5.026670407229E-03  1.004037965951E-02  1.506217053265E-02
  2.029552887432E-02  2.545834165589E-02  3.081188800123E-02  3.598031598865E-02
  4.102519090483E-02  4.622274527913E-02  5.146125203343E-02  5.661407921772E-02
  6.228286019135E-02  6.770677621320E-02  7.273027184416E-02  7.812648509314E-02
  8.392306969631E-02  8.908076201112E-02  9.455543260272E-02  1.003665621267E-01
  1.065348284690E-01  1.117412849051E-01  1.172021857236E-01  1.229299658586E-01
  1.289376679513E-01  1.352389720489E-01  1.418482267551E-01  1.470162864660E-01
  1.523726378587E-01  1.579241411011E-01  1.636779063026E-01  1.696413026204E-01
  1.758219676977E-01  1.822278174452E-01  1.888670561800E-01  1.957481871331E-01
  2.028800233396E-01  2.102716989265E-01  2.153484988254E-01  2.205478729811E-01
  2.258727808263E-01  2.313262532466E-01  2.369113943050E-01  2.426313830091E-01
  2.484894751204E-01  2.544890050078E-01  2.606333875447E-01  2.669261200535E-01
  2.733707842961E-01  2.799710485122E-01  2.867306695074E-01  2.936534947920E-01
  3.007434647703E-01  3.080046149837E-01  3.154410784079E-01  3.230570878049E-01
  3.308569781329E-01  3.388451890129E-01  3.470262672565E-01  3.554048694531E-01
  3.639857646212E-01  3.727738369222E-01  3.817740884408E-01  3.909916420322E-01
  4.004317442374E-01  4.100997682703E-01  4.200012170754E-01  4.250412316803E-01
  4.301417264604E-01  4.353034271780E-01  4.405270683041E-01  4.458133931238E-01
  4.511631538412E-01  4.565771116873E-01  4.620560370276E-01  4.676007094719E-01
  4.732119179856E-01  4.788904610014E-01  4.846371465334E-01  4.904527922918E-01
  4.963382257993E-01  5.022942845089E-01  5.083218159230E-01  5.144216777141E-01
  5.205947378467E-01  5.268418747008E-01  5.331639771972E-01  5.395619449236E-01
  5.460366882627E-01  5.525891285218E-01  5.592201980641E-01  5.659308404409E-01
  5.727220105262E-01  5.795946746525E-01  5.865498107483E-01  5.935884084773E-01
  6.007114693790E-01  6.079200070116E-01  6.152150470957E-01  6.225976276608E-01
  6.300687991928E-01  6.376296247831E-01  6.452811802805E-01  6.530245544439E-01
  6.608608490972E-01  6.687911792863E-01  6.768166734378E-01  6.849384735190E-01
  6.931577352013E-01  7.014756280237E-01  7.098933355600E-01  7.184120555867E-01
  7.270330002537E-01  7.357573962568E-01  7.445864850118E-01  7.535215228320E-01
  7.625637811060E-01  7.717145464792E-01  7.809751210370E-01  7.903468224894E-01
  7.998309843593E-01  8.094289561716E-01  8.191421036457E-01  8.289718088894E-01
  8.389194705961E-01  8.489865042433E-01  8.591743422942E-01  8.694844344017E-01
  8.799182476145E-01  8.904772665859E-01  9.011629937849E-01  9.119769497104E-01
  9.229206731069E-01  9.339957211842E-01  9.452036698384E-01  9.565461138764E-01
  9.680246672429E-01  9.796409632499E-01  9.913966548089E-01  1.003293414667E+00
  1.015332935643E+00  1.027516930870E+00  1.039847134041E+00  1.052325299649E+00
  1.064953203245E+00  1.077732641684E+00  1.090665433384E+00  1.103753418585E+00
  1.116998459608E+00  1.130402441123E+00  1.143967270417E+00  1.157694877662E+00
  1.171587216193E+00  1.185646262788E+00  1.199874017941E+00  1.214272506157E+00
  1.228843776230E+00  1.243589901545E+00  1.258512980364E+00  1.273615136128E+00
  1.288898517762E+00  1.304365299975E+00  1.320017683574E+00  1.335857895777E+00
  1.351888190527E+00  1.368110848813E+00  1.384528178999E+00  1.401142517147E+00
  1.417956227353E+00  1.434971702081E+00  1.452191362506E+00  1.469617658856E+00
  1.487253070762E+00  1.505100107611E+00  1.523161308903E+00  1.541439244609E+00
  1.559936515545E+00  1.578655753731E+00  1.597599622776E+00  1.616770818249E+00
  1.636172068068E+00  1.655806132885E+00  1.675675806480E+00  1.695783916157E+00
  1.716133323151E+00  1.736726923029E+00  1.757567646106E+00  1.778658457859E+00
  1.800002359353E+00  1.821602387665E+00  1.843461616317E+00  1.865583155713E+00
  1.887970153582E+00  1.910625795425E+00  1.933553304970E+00  1.956755944629E+00
  1.980237015965E+00  2.003999860157E+00  2.028047858478E+00  2.052384432780E+00
  2.077013045974E+00  2.101937202525E+00  2.127160448956E+00  2.152686374343E+00
  2.178518610835E+00  2.204660834165E+00  2.231116764175E+00  2.257890165345E+00
  2.284984847329E+00  2.312404665497E+00  2.340153521483E+00  2.368235363741E+00
  2.396654188106E+00  2.425414038363E+00  2.454519006824E+00  2.483973234905E+00
  2.513780913724E+00  2.543946284689E+00  2.574473640105E+00  2.605367323787E+00
  2.636631731672E+00  2.668271312452E+00  2.700290568202E+00  2.732694055020E+00
  2.765486383680E+00  2.798672220284E+00  2.832256286928E+00  2.866243362371E+00
  2.900638282719E+00  2.935445942112E+00  2.970671293417E+00  3.006319348938E+00
  3.042395181126E+00  3.078903923299E+00  3.115850770379E+00  3.153240979623E+00
  3.191079871379E+00  3.229372829835E+00  3.268125303793E+00  3.307342807439E+00
  3.347030921128E+00  3.387195292182E+00  3.427841635688E+00  3.468975735316E+00
  3.510603444140E+00  3.552730685469E+00  3.595363453695E+00  3.638507815139E+00
  3.682169908921E+00  3.726355947828E+00  3.771072219202E+00  3.816325085833E+00
  3.862120986863E+00  3.908466438705E+00  3.955368035969E+00  4.002832452401E+00
  4.050866441830E+00  4.099476839132E+00  4.148670561201E+00  4.198454607936E+00
  4.248836063231E+00  4.299822095990E+00  4.351419961142E+00  4.403637000675E+00
  4.456480644683E+00  4.509958412420E+00  4.564077913369E+00  4.618846848329E+00
  4.674273010509E+00  4.730364286635E+00  4.787128658075E+00  4.844574201972E+00
  4.902709092395E+00  4.961541601504E+00  5.021080100722E+00  5.081333061931E+00
  5.142309058674E+00  5.204016767378E+00  5.266464968587E+00  5.329662548210E+00
  5.393618498788E+00  5.458341920774E+00  5.523842023823E+00  5.590128128109E+00
  5.657209665646E+00  5.725096181634E+00  5.793797335813E+00  5.863322903843E+00
  5.933682778689E+00  6.004886972034E+00  6.076945615698E+00  6.149868963086E+00
  6.223667390643E+00  6.298351399331E+00  6.373931616123E+00  6.450418795517E+00
  6.527823821063E+00  6.606157706915E+00  6.685431599398E+00  6.765656778591E+00
  6.846844659934E+00  6.929006795854E+00  7.012154877404E+00  7.096300735933E+00
  7.181456344764E+00  7.267633820901E+00  7.354845426752E+00  7.443103571873E+00
  7.532420814735E+00  7.622809864512E+00  7.714283582886E+00  7.806854985881E+00
  7.900537245711E+00  7.995343692660E+00  8.091287816972E+00  8.188383270776E+00
  8.286643870025E+00  8.386083596465E+00  8.486716599623E+00  8.588557198818E+00
  8.691619885204E+00  8.795919323827E+00  8.901470355712E+00  9.008287999981E+00
  9.116387455981E+00  9.225784105453E+00  9.336493514718E+00  9.448531436895E+00
  9.561913814137E+00  9.676656779907E+00  9.792776661266E+00  9.910289981201E+00
  1.002921346098E+01  1.014956402251E+01  1.027135879078E+01  1.039461509627E+01
  1.051935047742E+01  1.064558268315E+01  1.077332967535E+01  1.090260963145E+01
  1.103344094703E+01  1.116584223839E+01  1.129983234526E+01  1.143543033340E+01
  1.157265549740E+01  1.171152736337E+01  1.185206569173E+01  1.199429048003E+01
  1.213822196579E+01  1.228388062938E+01  1.243128719693E+01  1.258046264329E+01
  1.273142819501E+01  1.288420533335E+01  1.303881579735E+01  1.319528158692E+01
  1.335362496597E+01  1.351386846556E+01  1.367603488714E+01  1.384014730579E+01
  1.400622907346E+01  1.417430382234E+01  1.434439546821E+01  1.451652821383E+01
  1.469072655239E+01  1.486701527102E+01  1.504541945427E+01  1.522596448773E+01
  1.540867606158E+01  1.559358017432E+01  1.578070313641E+01  1.597007157405E+01
  1.616171243293E+01  1.635565298213E+01  1.655192081792E+01  1.675054386773E+01
  1.695155039414E+01  1.715496899887E+01  1.736082862686E+01  1.756915857038E+01
  1.777998847323E+01  1.799334833491E+01  1.820926851492E+01  1.842777973710E+01
  1.864891309395E+01  1.887270005108E+01  1.909917245169E+01  1.932836252111E+01
  1.956030287136E+01  1.979502650582E+01  2.003256682389E+01  2.027295762577E+01
  2.051623311728E+01  2.076242791469E+01  2.101157704967E+01  2.126371597426E+01
  2.151888056596E+01  2.177710713275E+01  2.203843241834E+01  2.230289360736E+01
  2.257052833065E+01  2.284137467062E+01  2.311547116666E+01  2.339285682066E+01
  2.367357110251E+01  2.395765395574E+01  2.424514580321E+01  2.453608755285E+01
  2.483052060348E+01  2.512848685072E+01  2.543002869293E+01  2.573518903725E+01
  2.604401130570E+01  2.635653944136E+01  2.667281791466E+01  2.699289172964E+01
  2.731680643039E+01  2.764460810756E+01  2.797634340485E+01  2.831205952571E+01
  2.865180424001E+01  2.899562589089E+01  2.934357340158E+01  2.969569628240E+01
  3.005204463779E+01  3.041266917345E+01  3.077762120353E+01  3.114695265797E+01
  3.152071608987E+01  3.189896468294E+01  3.228175225914E+01  3.266913328625E+01
  3.306116288568E+01  3.345789684031E+01  3.385939160240E+01  3.426570430162E+01
  3.467689275324E+01  3.509301546628E+01  3.551413165188E+01  3.594030123170E+01
  3.637158484648E+01  3.680804386464E+01  3.724974039101E+01  3.769673727571E+01
  3.814909812302E+01  3.860688730049E+01  3.907016994810E+01  3.953901198747E+01
  4.001348013132E+01  4.049364189290E+01  4.097956559561E+01  4.147132038276E+01
  4.196897622736E+01  4.247260394208E+01  4.298227518939E+01  4.349806249166E+01
  4.402003924156E+01
</grid-data>
</grid>
<valence-charge total-charge="12" is-unscreening-charge="yes"
 rescaled-to-z-pseudo="no">
<radfunc>
<data npts="457">
  1.281958342042E+00  1.282462948945E+00  1.283971504733E+00  1.286488697160E+00
  1.290183166126E+00  1.294898698296E+00  1.300911070640E+00  1.307799182575E+00
  1.315548495674E+00  1.324591260593E+00  1.334791540712E+00  1.345887597492E+00
  1.359310389279E+00  1.373343784561E+00  1.387377738255E+00  1.403561375404E+00
  1.422222079093E+00  1.439934906157E+00  1.459875886826E+00  1.482322834284E+00
  1.507587473463E+00  1.530061444170E+00  1.554759815493E+00  1.581899527815E+00
  1.611717917545E+00  1.644474445891E+00  1.680452524022E+00  1.709735243755E+00
  1.741144140050E+00  1.774829163059E+00  1.810950039124E+00  1.849676755300E+00
  1.891190035622E+00  1.935681800248E+00  1.983355596426E+00  2.034426987584E+00
  2.089123883720E+00  2.147686792507E+00  2.189001053419E+00  2.232224027569E+00
  2.277436413579E+00  2.324721383416E+00  2.374164528737E+00  2.425853783961E+00
  2.479879322581E+00  2.536333422813E+00  2.595310298243E+00  2.656905888615E+00
  2.721217605419E+00  2.788344026330E+00  2.858384531962E+00  2.931438877760E+00
  3.007606693162E+00  3.086986899463E+00  3.169677037091E+00  3.255772492255E+00
  3.345365612211E+00  3.438544697661E+00  3.535392860154E+00  3.635986731763E+00
  3.740395013830E+00  3.848676851279E+00  3.960880018835E+00  4.077038905713E+00
  4.197172285802E+00  4.321280861335E+00  4.449344569507E+00  4.514846932670E+00
  4.581319643639E+00  4.648753004519E+00  4.717135423363E+00  4.786453300689E+00
  4.856690912142E+00  4.927830287379E+00  4.999851085292E+00  5.072730465717E+00
  5.146442957799E+00  5.220960325247E+00  5.296251428719E+00  5.372282085669E+00
  5.449014927987E+00  5.526409257853E+00  5.604420902271E+00  5.683002066803E+00
  5.762101189103E+00  5.841662792892E+00  5.921627343140E+00  6.001931103225E+00
  6.082505994995E+00  6.163279462676E+00  6.244174341713E+00  6.325108733675E+00
  6.405995888475E+00  6.486744095245E+00  6.567256583290E+00  6.647431434651E+00
  6.727161509905E+00  6.806334388911E+00  6.884832328310E+00  6.962532237677E+00
  7.039305676292E+00  7.115018872586E+00  7.189532768372E+00  7.262703090030E+00
  7.334380448858E+00  7.404410472822E+00  7.472633971949E+00  7.538887139605E+00
  7.603001791847E+00  7.664805646995E+00  7.724122647482E+00  7.780773325900E+00
  7.834575217050E+00  7.885343317568E+00  7.932890594510E+00  7.977028543986E+00
  8.017567800651E+00  8.054318798457E+00  8.087092482734E+00  8.115701073155E+00
  8.139958876695E+00  8.159683149120E+00  8.174695002981E+00  8.184820359441E+00
  8.189890940606E+00  8.189745298344E+00  8.184229874812E+00  8.173200089213E+00
  8.156521444495E+00  8.134070646970E+00  8.105736731068E+00  8.071422180699E+00
  8.031044038002E+00  7.984534989604E+00  7.931844419911E+00  7.872939420479E+00
  7.807805744039E+00  7.736448691511E+00  7.658893920123E+00  7.575188160740E+00
  7.485399832625E+00  7.389619544149E+00  7.287960468434E+00  7.180558583574E+00
  7.067572767895E+00  6.949184741769E+00  6.825598848674E+00  6.697041669582E+00
  6.563761466271E+00  6.426027450835E+00  6.284128880444E+00  6.138373978244E+00
  5.989088683255E+00  5.836615234022E+00  5.681310592731E+00  5.523544718384E+00
  5.363698699439E+00  5.202162758023E+00  5.039334139385E+00  4.875614901718E+00
  4.711409622664E+00  4.547123039984E+00  4.383157644726E+00  4.219911246031E+00
  4.057774527335E+00  3.897128614234E+00  3.738342674738E+00  3.581771572984E+00
  3.427753597857E+00  3.276608288295E+00  3.128634377381E+00  2.984107877668E+00
  2.843280330428E+00  2.706377241761E+00  2.573596728511E+00  2.445108396738E+00
  2.321052474956E+00  2.201539223343E+00  2.086648638504E+00  1.976430471144E+00
  1.870904570919E+00  1.770061568882E+00  1.673863903239E+00  1.582247188588E+00
  1.495121922619E+00  1.412376427514E+00  1.333883640158E+00  1.259509978101E+00
  1.189116600599E+00  1.122560521240E+00  1.059695692102E+00  1.000373998326E+00
  9.444461815376E-01  8.917626909211E-01  8.421744621726E-01  7.955336252544E-01
  7.516941422670E-01  7.105123771739E-01  6.718475994853E-01  6.355624243335E-01
  6.015231916608E-01  5.696002874846E-01  5.396684104139E-01  5.116067867592E-01
  4.852993377039E-01  4.606348021024E-01  4.375068185126E-01  4.158139700884E-01
  3.954597959204E-01  3.763527723404E-01  3.584062675919E-01  3.415384731071E-01
  3.256723144478E-01  3.107353447425E-01  2.966596232190E-01  2.833815811824E-01
  2.708418775491E-01  2.589852458155E-01  2.477603341356E-01  2.371195400020E-01
  2.270188408818E-01  2.174176220159E-01  2.082785025670E-01  1.995671611162E-01
  1.912521615409E-01  1.833047802010E-01  1.756988353367E-01  1.684105194495E-01
  1.614182354549E-01  1.547024372612E-01  1.482454753663E-01  1.420314479751E-01
  1.360460580574E-01  1.302764766764E-01  1.247112128376E-01  1.193399900303E-01
  1.141536295629E-01  1.091439407263E-01  1.043036177665E-01  9.962614359343E-02
  9.510570011247E-02  9.073708502752E-02  8.651563493445E-02  8.243715449881E-02
  7.849785149198E-02  7.469427744458E-02  7.102327366523E-02  6.748192236483E-02
  6.406750262310E-02  6.077745093254E-02  5.760932605689E-02  5.456077794509E-02
  5.162952044756E-02  4.881330758943E-02  4.610991316429E-02  4.351711342141E-02
  4.103267263031E-02  3.865433131607E-02  3.637979696905E-02  3.420673704158E-02
  3.213277405217E-02  3.015548262419E-02  2.827238829065E-02  2.648096790859E-02
  2.477865150099E-02  2.316282539315E-02  2.163083646870E-02  2.017999739127E-02
  1.880759263509E-02  1.751088516993E-02  1.628712364842E-02  1.513354994852E-02
  1.404740692971E-02  1.302594626912E-02  1.206643625292E-02  1.116616940937E-02
  1.032246988115E-02  9.532700448112E-03  8.794269124466E-03  8.104635268325E-03
  7.461315155038E-03  6.861886978873E-03  6.303995260168E-03  5.785354646639E-03
  5.303753108163E-03  4.857054533699E-03  4.443200747218E-03  4.060212966374E-03
  3.706192733317E-03  3.379322351483E-03  3.077864865470E-03  2.800163623376E-03
  2.544641462237E-03  2.309799557654E-03  2.094215978341E-03  1.896543985426E-03
  1.715510114818E-03  1.549912079042E-03  1.398616522677E-03  1.260556663105E-03
  1.134729845531E-03  1.020195038686E-03  9.160702902973E-04  8.215301940849E-04
  7.358032693704E-04  6.581695047088E-04  5.879580244972E-04  5.245439856319E-04
  4.673467917113E-04  4.158277110503E-04  3.694873539547E-04  3.278635063771E-04
  2.905290101348E-04  2.570896862182E-04  2.271823355284E-04  2.004728158355E-04
  1.766541953573E-04  1.554449829571E-04  1.365874346575E-04  1.198459359268E-04
  1.050054589997E-04  9.187009433422E-05  8.026165516820E-05  7.001835401072E-05
  6.099354978508E-05  5.305456422114E-05  4.608156597799E-05  3.996652085998E-05
  3.461220637282E-05  2.993128875125E-05  2.584546047970E-05  2.228463622358E-05
  1.918620499372E-05  1.649433628304E-05  1.415933784324E-05  1.213706271331E-05
  1.038836307027E-05  8.878588447940E-06  7.577125860551E-06  6.456979375664E-06
  5.494386703147E-06  4.668470404447E-06  3.960921376765E-06  3.355712329320E-06
  2.838839041964E-06  2.398087278472E-06  2.022823316353E-06  1.703806150403E-06
  1.433019526942E-06  1.203522068365E-06  1.009313851860E-06  8.452179108194E-07
  7.067752313473E-07  5.901519185195E-07  4.920573068021E-07  4.096718855623E-07
  3.405840033999E-07  2.827344036103E-07  2.343677271304E-07  1.939901985991E-07
  1.603327855343E-07  1.323191900317E-07  1.090380968487E-07  8.971916130736E-08
  7.371227527331E-08  6.046969968865E-08  4.953069796531E-08  4.050834619148E-08
  3.307823380770E-08  2.696880241603E-08  2.195310094966E-08  1.784176280270E-08
  1.447703495286E-08  1.172771084670E-08  9.484838094343E-09  7.658089063104E-09
  6.172697481558E-09  4.966877366960E-09  3.989652157875E-09  3.199032043299E-09
  2.560486289836E-09  2.045665026051E-09  1.631331581503E-09  1.298472218214E-09
  1.031555043735E-09  8.179141555206E-10  6.472387238965E-10  5.111498534228E-10
  4.028507394339E-10  3.168379190358E-10  2.486633578941E-10  1.947387630103E-10
  1.521749087514E-10  1.186499447179E-10  9.230165096069E-11  7.163944571543E-11
  5.547265668419E-11  4.285215914752E-11  3.302298020233E-11  2.538588306008E-11
  1.946629132402E-11  1.488920133487E-11  1.135897025580E-11  8.643066392699E-12
  6.559032944315E-12  4.964052557865E-12  3.746612463943E-12  2.819862542734E-12
  2.116334795928E-12  1.583755200588E-12  1.181730240836E-12  8.791306954260E-13
  5.814914526107E-13  4.309712156373E-13  3.184119170655E-13  2.344982940853E-13
  1.721341809188E-13  6.286774480323E-16  4.087599648349E-16  2.644777645095E-16
  1.702804924369E-16  1.090862005929E-16  6.953090296094E-17  4.409229231818E-17
  2.781618458769E-17  1.745642765973E-17  1.089704792781E-17  6.765977627581E-18
  4.178231753311E-18  2.566057752223E-18  1.567196963630E-18  9.517764734212E-19
  5.747397082752E-19  3.450663148457E-19  2.059676271622E-19  1.222165310432E-19
  7.208828751807E-20  4.226414081002E-20  2.462750374993E-20  1.426191386831E-20
  8.207520148282E-21  4.693427506942E-21  2.666730690958E-21  1.505378018599E-21
  8.442195749181E-22  4.702993281806E-22  2.602361496466E-22  1.430210675697E-22
  7.806131780071E-23  4.230961566154E-23  2.277052087290E-23  1.216746579653E-23
  6.454811735428E-24  0.000000000000E+00  0.000000000000E+00  0.000000000000E+00
  0.000000000000E+00
</data>
</radfunc>
</valence-charge>
<pseudocore-charge matching-radius="1.02751693087"
 number-of-continuous-derivatives="4">
<annotation model-charge-form="Teter function with specified parameters" />
<radfunc>
<data npts="290">
  4.064133625377E+01  4.063967483436E+01  4.063470808013E+01  4.062642111649E+01
  4.061425978618E+01  4.059873976792E+01  4.057895543415E+01  4.055629476570E+01
  4.053080773488E+01  4.050107572876E+01  4.046754960619E+01  4.043109328104E+01
  4.038701181738E+01  4.034094762456E+01  4.029490445280E+01  4.024183663728E+01
  4.018068329870E+01  4.012267257353E+01  4.005740632721E+01  3.998399048975E+01
  3.990142442136E+01  3.982803576985E+01  3.974744470735E+01  3.965896044379E+01
  3.956182930678E+01  3.945522973314E+01  3.933826701856E+01  3.924316177787E+01
  3.914124006103E+01  3.903203239850E+01  3.891503992168E+01  3.878973298251E+01
  3.865554978557E+01  3.851189504947E+01  3.835813871745E+01  3.819361474079E+01
  3.801761996277E+01  3.782941313569E+01  3.769677380692E+01  3.755812008860E+01
  3.741320323030E+01  3.726176659855E+01  3.710354568217E+01  3.693826813164E+01
  3.676565383647E+01  3.658541504546E+01  3.639725653442E+01  3.620087582716E+01
  3.599596347503E+01  3.578220340155E+01  3.555927331846E+01  3.532684522030E+01
  3.508458596500E+01  3.483215794820E+01  3.456921987981E+01  3.429542767121E+01
  3.401043544243E+01  3.371389665847E+01  3.340546540460E+01  3.308479781044E+01
  3.275155363295E+01  3.240539800829E+01  3.204600338274E+01  3.167305163230E+01
  3.128623638050E+01  3.088526552320E+01  3.046986396834E+01  3.025667108899E+01
  3.003977659759E+01  2.981915224844E+01  2.959477145547E+01  2.936660940456E+01
  2.913464316954E+01  2.889885183182E+01  2.865921660357E+01  2.841572095459E+01
  2.816835074255E+01  2.791709434684E+01  2.766194280565E+01  2.740288995649E+01
  2.713993257967E+01  2.687307054497E+01  2.660230696111E+01  2.632764832783E+01
  2.604910469060E+01  2.576668979739E+01  2.548042125758E+01  2.519032070248E+01
  2.489641394727E+01  2.459873115397E+01  2.429730699508E+01  2.399218081741E+01
  2.368339680581E+01  2.337100414611E+01  2.305505718693E+01  2.273561559964E+01
  2.241274453599E+01  2.208651478275E+01  2.175700291254E+01  2.142429143033E+01
  2.108846891466E+01  2.074963015288E+01  2.040787626941E+01  2.006331484636E+01
  1.971606003523E+01  1.936623265898E+01  1.901396030332E+01  1.865937739607E+01
  1.830262527369E+01  1.794385223354E+01  1.758321357097E+01  1.722087159986E+01
  1.685699565530E+01  1.649176207742E+01  1.612535417480E+01  1.575796216630E+01
  1.538978310000E+01  1.502102074798E+01  1.465188547554E+01  1.428259408377E+01
  1.391336962408E+01  1.354444118352E+01  1.317604363979E+01  1.280841738489E+01
  1.244180801621E+01  1.207646599433E+01  1.171264626667E+01  1.135060785620E+01
  1.099061341477E+01  1.063292874053E+01  1.027782225932E+01  9.925564469861E+00
  9.576427353020E+00  9.230683745409E+00  8.888606678031E+00  8.550468680818E+00
  8.216541054232E+00  7.887093109398E+00  7.562391378545E+00  7.242698797865E+00
  6.928273865242E+00  6.619369775671E+00  6.316233537541E+00  6.019105073339E+00
  5.728216308714E+00  5.443790254233E+00  5.166040084515E+00  4.895168219836E+00
  4.631365415639E+00  4.374809865761E+00  4.125666325470E+00  3.884085260772E+00
  3.650202030651E+00  3.424136109184E+00  3.205990354631E+00  2.995850332744E+00
  2.793783701589E+00  2.599839665206E+00  2.414048503342E+00  2.236421184339E+00
  2.066949068033E+00  1.905603705174E+00  1.752336739454E+00  1.607079917694E+00
  1.469745213093E+00  1.340225065716E+00  1.218392743515E+00  1.104102826236E+00
  9.971918134808E-01  8.974788570389E-01  8.047666163394E-01  7.188422345320E-01
  6.394784312997E-01  5.664347070391E-01  4.994586515414E-01  4.382873487887E-01
  3.826488679639E-01  3.322638292911E-01  2.868470318949E-01  2.461091295264E-01
  2.097583387830E-01  1.775021633694E-01  1.490491170549E-01  1.241104272926E-01
  1.024017010248E-01  8.364453401609E-02  6.756804517580E-02  5.391031775604E-02
  4.241973007103E-02  3.285615947893E-02  2.499204480468E-02  1.861329415655E-02
  1.352002718495E-02  9.527143227965E-03  6.464709450576E-03  4.178165971974E-03
  2.528348035149E-03  1.391328444914E-03  6.580867149916E-04  2.340145459990E-04
  3.827032283375E-05  2.998187647151E-06  7.242982823839E-05  2.018893382645E-04
  3.567232772624E-04  5.111793155615E-04  6.472575338015E-04  7.535585158292E-04
  8.241518018993E-04  8.574870513387E-04  8.553684175016E-04  8.220102038663E-04
  7.631889133689E-04  6.855034116040E-04  5.957512077902E-04  5.004249431514E-04
  4.053292063715E-04  3.153139204677E-04  2.341169174863E-04  1.643050846959E-04
  1.073007638777E-04  6.347802934805E-05  3.231214876181E-05  1.256499831681E-05
  2.489477088860E-06  3.701877507387E-08  3.054065753701E-06  9.455742237021E-06
  1.736779658853E-05  2.523100505268E-05  3.186544865101E-05  3.649519303193E-05
  3.873672469994E-05  3.855685286667E-05  3.620753330897E-05  3.214611225522E-05
  2.694978031404E-05  2.123258231795E-05  1.557222023759E-05  1.045223809013E-05
  6.223159030904E-06  3.083954481165E-06  1.083074385426E-06  1.363602753073E-07
  5.767516460637E-08  5.971473932567E-07  1.481610755417E-06  2.452134014073E-06
  3.294403541960E-06  3.859025276732E-06  4.070370362953E-06  3.924199466138E-06
  3.475758250067E-06  2.821159407842E-06  2.075521539975E-06  1.351455216028E-06
  7.410811727168E-07  3.039196474879E-07  6.185152615548E-08  0.000000000000E+00
  0.000000000000E+00  0.000000000000E+00  0.000000000000E+00  0.000000000000E+00
  0.000000000000E+00  0.000000000000E+00  0.000000000000E+00  0.000000000000E+00
  0.000000000000E+00  0.000000000000E+00  0.000000000000E+00  0.000000000000E+00
  0.000000000000E+00  0.000000000000E+00  0.000000000000E+00  0.000000000000E+00
  0.000000000000E+00  0.000000000000E+00  0.000000000000E+00  0.000000000000E+00
  0.000000000000E+00  0.000000000000E+00  0.000000000000E+00  0.000000000000E+00
  0.000000000000E+00  0.000000000000E+00  0.000000000000E+00  0.000000000000E+00
  0.000000000000E+00  0.000000000000E+00
</data>
</radfunc>
</pseudocore-charge>
<semilocal-potentials set="scalar_relativistic">
<slps n="5" l="s" rc="1.71613332315">
<radfunc>
<data npts="290">
 -2.830686828758E+00 -2.831993094215E+00 -2.835896955184E+00 -2.842406696805E+00
 -2.851951327091E+00 -2.864117169477E+00 -2.879601708839E+00 -2.897304464776E+00
 -2.917173225962E+00 -2.940295230401E+00 -2.966295786967E+00 -2.994482472603E+00
 -3.028445051988E+00 -3.063796074040E+00 -3.098989630100E+00 -3.139378283993E+00
 -3.185690702632E+00 -3.229397179986E+00 -3.278309022849E+00 -3.333000520647E+00
 -3.394097502278E+00 -3.448041437210E+00 -3.506890654084E+00 -3.571039350056E+00
 -3.640903071502E+00 -3.716917719781E+00 -3.799537992925E+00 -3.866121093949E+00
 -3.936888662684E+00 -4.012048114873E+00 -4.091809219198E+00 -4.176382838868E+00
 -4.265979467425E+00 -4.360807544177E+00 -4.461071536079E+00 -4.566969774863E+00
 -4.678692040842E+00 -4.796416888207E+00 -4.878316746697E+00 -4.963002403499E+00
 -5.050514552617E+00 -5.140889549899E+00 -5.234158925290E+00 -5.330348876907E+00
 -5.429479748712E+00 -5.531565493821E+00 -5.636613125865E+00 -5.744622161089E+00
 -5.855584054220E+00 -5.969481631438E+00 -6.086288524078E+00 -6.205968606927E+00
 -6.328475445267E+00 -6.453751754947E+00 -6.581728879978E+00 -6.712326292190E+00
 -6.845451117551E+00 -6.980997693719E+00 -7.118847163293E+00 -7.258867107052E+00
 -7.400911221253E+00 -7.544819042711E+00 -7.690415725043E+00 -7.837511868968E+00
 -7.985903409122E+00 -8.135371559251E+00 -8.285682817139E+00 -8.361077633008E+00
 -8.436589030031E+00 -8.512183720660E+00 -8.587827520771E+00 -8.663485356890E+00
 -8.739121274361E+00 -8.814698446416E+00 -8.890179184159E+00 -8.965524947438E+00
 -9.040696356592E+00 -9.115653205077E+00 -9.190354472937E+00 -9.264758341118E+00
 -9.338822206620E+00 -9.412502698458E+00 -9.485755694443E+00 -9.558536338762E+00
 -9.630799060354E+00 -9.702497592083E+00 -9.773584990704E+00 -9.844013657632E+00
 -9.913735360509E+00 -9.982701255592E+00 -1.005086191098E+01 -1.011816733066E+01
 -1.018456697950E+01 -1.025000980907E+01 -1.031444428447E+01 -1.037781841211E+01
 -1.044007976855E+01 -1.050117553038E+01 -1.056105250535E+01 -1.061965716460E+01
 -1.067693567621E+01 -1.073283394018E+01 -1.078729762471E+01 -1.084027220415E+01
 -1.089170299844E+01 -1.094153521427E+01 -1.098971398809E+01 -1.103618443087E+01
 -1.108089167487E+01 -1.112378092248E+01 -1.116479749699E+01 -1.120388689575E+01
 -1.124099484524E+01 -1.127606735865E+01 -1.130905079549E+01 -1.133989192351E+01
 -1.136853798276E+01 -1.139493675185E+01 -1.141903661612E+01 -1.144078663770E+01
 -1.146013662732E+01 -1.147703721752E+01 -1.149143993705E+01 -1.150329728620E+01
 -1.151256281258E+01 -1.151919118706E+01 -1.152313827927E+01 -1.152436123237E+01
 -1.152281853637E+01 -1.151847009953E+01 -1.151127731730E+01 -1.150120313827E+01
 -1.148821212641E+01 -1.147227051941E+01 -1.145334628234E+01 -1.143140915661E+01
 -1.140643070377E+01 -1.137838434431E+01 -1.134724539136E+01 -1.131299108001E+01
 -1.127560059261E+01 -1.123505508133E+01 -1.119133768925E+01 -1.114443357206E+01
 -1.109432992249E+01 -1.104101600090E+01 -1.098448317527E+01 -1.092472497537E+01
 -1.086173716619E+01 -1.079551784683E+01 -1.072606758217E+01 -1.065338957544E+01