<?xml version="1.0" encoding="UTF-8" ?>
<psml version="1.1" energy_unit="hartree" length_unit="bohr"
 uuid="096b24c0-4707-11e8-5ab9-60f5ffa54298"
 xmlns="http://esl.cecam.org/PSML/ns/1.1">
<provenance creator="ONCVPSP-3.3.0+psml-3.3.0-73 (fully-relativistic)"
 date="2018-04-23">
<annotation action="semilocal-pseudopotential-generation"
 action-cont="projectors-generation" />
<input-file name="oncvpsp-input">
<![CDATA[# atsym z nc nv iexc psfile
Cd 48 6 4 4 both
# n l f
1 0 2.0
2 0 2.0
2 1 6.0
3 0 2.0
3 1 6.0
3 2 10.0
4 0 2.0
4 1 6.0
4 2 10.0
5 0 2.0
# lmax
2
# l rc ep ncon nbas qcut
0 1.25 0.0 4 8 10.0
1 1.3 0.0 4 8 10.0
2 1.35 0.0 4 8 10.0
# lloc lpopt rc5 dvloc0
4 5 1.25 0.0
# l nproj debl
0 2 2.0
1 2 2.0
2 2 2.0
# icmod fcfact
3 6 1.26
# epsh1 epsh2 depsh
-12.0 12.0 0.02
# rlmax drl
6.0 0.01
 0
]]>
</input-file>
</provenance>
<pseudo-atom-spec atomic-label="Cd" atomic-number="48" z-pseudo="20"
 flavor="Hamann&apos;s oncvpsp" relativity="dirac" spin-dft="no"
 core-corrections="yes">
<annotation pseudo-energy="-167.911496016" />
<exchange-correlation>
<annotation oncvpsp-xc-code="4" oncvpsp-xc-type="GGA -- Perdew-Burke-Ernzerhof" />
<libxc-info number-of-functionals="2">
<functional name="Perdew, Burke &amp; Ernzerhof (GGA)" type="exchange" id="101" />
<functional name="Perdew, Burke &amp; Ernzerhof (GGA)" type="correlation"
 id="130" />
</libxc-info>
</exchange-correlation>
<valence-configuration total-valence-charge="20">
<shell n="4" l="s" occupation="2" />
<shell n="4" l="p" occupation="6" />
<shell n="4" l="d" occupation="10" />
<shell n="5" l="s" occupation="2" />
</valence-configuration>
</pseudo-atom-spec>
<grid npts="457">
<annotation type="sampled from oncvpsp log grid"
 recipe="r(i:1..N) = r1*exp(a*(i-1)) + r=0; resampled"
 recipe-cont="r1: scale; a: step" scale="0.104166666667E-04"
 step="0.119285708653E-01" delta="0.500000000000E-02" rmax="44.0153601024" />
<grid-data>
  0.000000000000E+00  5.026136093974E-03  1.003931241072E-02  1.506056948927E-02
  2.029337154766E-02  2.545563554462E-02  3.080861283122E-02  3.597649143716E-02
  4.102083010503E-02  4.621783200185E-02  5.145578192561E-02  5.660806138672E-02
  6.227623979354E-02  6.769957927664E-02  7.272254093181E-02  7.811818058674E-02
  8.391414903812E-02  8.907129311261E-02  9.454538177047E-02  1.003558935966E-01
  1.065235042789E-01  1.117294072913E-01  1.171897276397E-01  1.229168989365E-01
  1.289239624366E-01  1.352245967329E-01  1.418331489041E-01  1.470006592726E-01
  1.523564413084E-01  1.579073544501E-01  1.636605080513E-01  1.696232704860E-01
  1.758032785853E-01  1.822084474188E-01  1.888469804314E-01  1.957273799500E-01
  2.028584580733E-01  2.102493479572E-01  2.153256082143E-01  2.205244296990E-01
  2.258487715297E-01  2.313016642695E-01  2.368862116516E-01  2.426055923457E-01
  2.484630617673E-01  2.544619539307E-01  2.606056833464E-01  2.668977469651E-01
  2.733417261678E-01  2.799412888044E-01  2.867001912813E-01  2.936222806996E-01
  3.007114970448E-01  3.079718754294E-01  3.154075483898E-01  3.230227482381E-01
  3.308218094716E-01  3.388091712395E-01  3.469893798699E-01  3.553670914575E-01
  3.639470745136E-01  3.727342126807E-01  3.817335075116E-01  3.909500813170E-01
  4.003891800803E-01  4.100561764442E-01  4.199565727682E-01  4.249960516415E-01
  4.300960042611E-01  4.352571563123E-01  4.404802421880E-01  4.457660050943E-01
  4.511151971554E-01  4.565285795213E-01  4.620069224755E-01  4.675510055452E-01
  4.731616176118E-01  4.788395570231E-01  4.845856317074E-01  4.904006592879E-01
  4.962854671994E-01  5.022408928057E-01  5.082677835194E-01  5.143669969216E-01
  5.205394008847E-01  5.267858736953E-01  5.331073041797E-01  5.395045918298E-01
  5.459786469318E-01  5.525303906950E-01  5.591607553833E-01  5.658706844479E-01
  5.726611326613E-01  5.795330662532E-01  5.864874630482E-01  5.935253126048E-01
  6.006476163561E-01  6.078553877524E-01  6.151496524054E-01  6.225314482343E-01
  6.300018256131E-01  6.375618475204E-01  6.452125896907E-01  6.529551407670E-01
  6.607906024562E-01  6.687200896856E-01  6.767447307619E-01  6.848656675310E-01
  6.930840555414E-01  7.014010642079E-01  7.098178769784E-01  7.183356915021E-01
  7.269557198001E-01  7.356791884377E-01  7.445073386990E-01  7.534414267634E-01
  7.624827238845E-01  7.716325165711E-01  7.808921067700E-01  7.902628120512E-01
  7.997459657959E-01  8.093429173854E-01  8.190550323940E-01  8.288836927828E-01
  8.388302970962E-01  8.488962606613E-01  8.590830157892E-01  8.693920119787E-01
  8.798247161225E-01  8.903826127159E-01  9.010672040685E-01  9.118800105173E-01
  9.228225706435E-01  9.338964414913E-01  9.451031987892E-01  9.564444371746E-01
  9.679217704207E-01  9.795368316658E-01  9.912912736458E-01  1.003186768930E+00
  1.015225010157E+00  1.027407710279E+00  1.039736602802E+00  1.052213442036E+00
  1.064840003340E+00  1.077618083380E+00  1.090549500381E+00  1.103636094385E+00
  1.116879727518E+00  1.130282284248E+00  1.143845671659E+00  1.157571819719E+00
  1.171462681555E+00  1.185520233734E+00  1.199746476539E+00  1.214143434257E+00
  1.228713155469E+00  1.243457713334E+00  1.258379205894E+00  1.273479756365E+00
  1.288761513441E+00  1.304226651603E+00  1.319877371422E+00  1.335715899879E+00
  1.351744490677E+00  1.367965424566E+00  1.384381009660E+00  1.400993581776E+00
  1.417805504758E+00  1.434819170815E+00  1.452037000864E+00  1.469461444875E+00
  1.487094982213E+00  1.504940122000E+00  1.522999403464E+00  1.541275396305E+00
  1.559770701061E+00  1.578487949474E+00  1.597429804868E+00  1.616598962526E+00
  1.635998150076E+00  1.655630127877E+00  1.675497689412E+00  1.695603661685E+00
  1.715950905625E+00  1.736542316492E+00  1.757380824290E+00  1.778469394182E+00
  1.799811026912E+00  1.821408759235E+00  1.843265664346E+00  1.865384852318E+00
  1.887769470546E+00  1.910422704192E+00  1.933347776642E+00  1.956547949962E+00
  1.980026525362E+00  2.003786843666E+00  2.027832285790E+00  2.052166273220E+00
  2.076792268498E+00  2.101713775720E+00  2.126934341029E+00  2.152457553121E+00
  2.178287043759E+00  2.204426488284E+00  2.230879606143E+00  2.257650161417E+00
  2.284741963354E+00  2.312158866914E+00  2.339904773317E+00  2.367983630597E+00
  2.396399434164E+00  2.425156227374E+00  2.454258102102E+00  2.483709199328E+00
  2.513513709720E+00  2.543675874236E+00  2.574199984727E+00  2.605090384544E+00
  2.636351469158E+00  2.667987686788E+00  2.700003539030E+00  2.732403581498E+00
  2.765192424476E+00  2.798374733570E+00  2.831955230373E+00  2.865938693137E+00
  2.900329957455E+00  2.935133916944E+00  2.970355523947E+00  3.005999790235E+00
  3.042071787718E+00  3.078576649170E+00  3.115519568960E+00  3.152905803788E+00
  3.190740673433E+00  3.229029561514E+00  3.267777916253E+00  3.306991251248E+00
  3.346675146263E+00  3.386835248018E+00  3.427477270994E+00  3.468606998246E+00
  3.510230282225E+00  3.552353045612E+00  3.594981282159E+00  3.638121057545E+00
  3.681778510235E+00  3.725959852358E+00  3.770671370587E+00  3.815919427034E+00
  3.861710460158E+00  3.908050985680E+00  3.954947597508E+00  4.002406968678E+00
  4.050435852302E+00  4.099041082530E+00  4.148229575520E+00  4.198008330426E+00
  4.248384430392E+00  4.299365043556E+00  4.350957424079E+00  4.403168913168E+00
  4.456006940126E+00  4.509479023407E+00  4.563592771688E+00  4.618355884949E+00
  4.673776155568E+00  4.729861469435E+00  4.786619807068E+00  4.844059244753E+00
  4.902187955690E+00  4.961014211158E+00  5.020546381692E+00  5.080792938272E+00
  5.141762453532E+00  5.203463602974E+00  5.265905166210E+00  5.329096028204E+00
  5.393045180543E+00  5.457761722709E+00  5.523254863382E+00  5.589533921742E+00
  5.656608328803E+00  5.724487628749E+00  5.793181480294E+00  5.862699658057E+00
  5.933052053954E+00  6.004248678601E+00  6.076299662745E+00  6.149215258698E+00
  6.223005841802E+00  6.297681911904E+00  6.373254094846E+00  6.449733143985E+00
  6.527129941712E+00  6.605455501013E+00  6.684720967025E+00  6.764937618629E+00
  6.846116870053E+00  6.928270272494E+00  7.011409515764E+00  7.095546429953E+00
  7.180692987112E+00  7.266861302957E+00  7.354063638593E+00  7.442312402256E+00
  7.531620151083E+00  7.621999592896E+00  7.713463588011E+00  7.806025151067E+00
  7.899697452880E+00  7.994493822314E+00  8.090427748182E+00  8.187512881160E+00
  8.285763035734E+00  8.385192192163E+00  8.485814498469E+00  8.587644272451E+00
  8.690696003720E+00  8.794984355765E+00  8.900524168034E+00  9.007330458050E+00
  9.115418423547E+00  9.224803444629E+00  9.335501085965E+00  9.447527098997E+00
  9.560897424185E+00  9.675628193275E+00  9.791735731594E+00  9.909236560373E+00
  1.002814739910E+01  1.014848516789E+01  1.027026698990E+01  1.039351019378E+01
  1.051823231611E+01  1.064445110390E+01  1.077218451715E+01  1.090145073135E+01
  1.103226814013E+01  1.116465535781E+01  1.129863122210E+01  1.143421479677E+01
  1.157142537433E+01  1.171028247882E+01  1.185080586857E+01  1.199301553899E+01
  1.213693172546E+01  1.228257490616E+01  1.242996580504E+01  1.257912539470E+01
  1.273007489943E+01  1.288283579823E+01  1.303742982781E+01  1.319387898574E+01
  1.335220553357E+01  1.351243199997E+01  1.367458118397E+01  1.383867615818E+01
  1.400474027208E+01  1.417279715534E+01  1.434287072121E+01  1.451498516986E+01
  1.468916499190E+01  1.486543497180E+01  1.504382019146E+01  1.522434603376E+01
  1.540703818617E+01  1.559192264440E+01  1.577902571613E+01  1.596837402473E+01
  1.615999451302E+01  1.635391444718E+01  1.655016142055E+01  1.674876335759E+01
  1.694974851788E+01  1.715314550010E+01  1.735898324610E+01  1.756729104505E+01
  1.777809853759E+01  1.799143572004E+01  1.820733294868E+01  1.842582094407E+01
  1.864693079540E+01  1.887069396494E+01  1.909714229252E+01  1.932630800003E+01
  1.955822369603E+01  1.979292238038E+01  2.003043744895E+01  2.027080269834E+01
  2.051405233072E+01  2.076022095868E+01  2.100934361019E+01  2.126145573351E+01
  2.151659320231E+01  2.177479232074E+01  2.203608982859E+01  2.230052290653E+01
  2.256812918141E+01  2.283894673159E+01  2.311301409237E+01  2.339037026148E+01
  2.367105470461E+01  2.395510736107E+01  2.424256864940E+01  2.453347947319E+01
  2.482788122687E+01  2.512581580160E+01  2.542732559121E+01  2.573245349831E+01
  2.604124294029E+01  2.635373785557E+01  2.666998270984E+01  2.699002250236E+01
  2.731390277239E+01  2.764166960565E+01  2.797336964092E+01  2.830905007661E+01
  2.864875867753E+01  2.899254378166E+01  2.934045430704E+01  2.969253975873E+01
  3.004885023583E+01  3.040943643866E+01  3.077434967593E+01  3.114364187204E+01
  3.151736557450E+01  3.189557396140E+01  3.227832084893E+01  3.266566069912E+01
  3.305764862751E+01  3.345434041104E+01  3.385579249597E+01  3.426206200592E+01
  3.467320674999E+01  3.508928523099E+01  3.551035665377E+01  3.593648093361E+01
  3.636771870482E+01  3.680413132927E+01  3.724578090522E+01  3.769273027609E+01
  3.814504303940E+01  3.860278355587E+01  3.906601695854E+01  3.953480916205E+01
  4.000922687199E+01  4.048933759445E+01  4.097520964559E+01  4.146691216133E+01
  4.196451510727E+01  4.246808928856E+01  4.297770636002E+01  4.349343883634E+01
  4.401536010238E+01
</grid-data>
</grid>
<valence-charge total-charge="20" is-unscreening-charge="yes"
 rescaled-to-z-pseudo="no">
<radfunc>
<data npts="457">
  5.798335849641E-01  5.823157366387E-01  5.897393404670E-01  6.021365314835E-01
  6.203546078753E-01  6.436470044326E-01  6.734088111068E-01  7.075929441518E-01
  7.461619510442E-01  7.913162322981E-01  8.424400874294E-01  8.982801869744E-01
  9.661423589236E-01  1.037454527148E+00  1.109136807291E+00  1.192250213546E+00
  1.288677413221E+00  1.380785956455E+00  1.485146881940E+00  1.603453668165E+00
  1.737645780538E+00  1.857919790608E+00  1.991061981514E+00  2.138506207183E+00
  2.301851586313E+00  2.482880877106E+00  2.683580262198E+00  2.848334075846E+00
  3.026413263745E+00  3.218923601230E+00  3.427059406079E+00  3.652108675863E+00
  3.895457905762E+00  4.158596371514E+00  4.443119605866E+00  4.750731730289E+00
  5.083246225660E+00  5.442584635323E+00  5.698041974339E+00  5.966943822836E+00
  6.249932436070E+00  6.547665991753E+00  6.860816256122E+00  7.190065691828E+00
  7.536103934256E+00  7.899623557370E+00  8.281315045035E+00  8.681860879136E+00
  9.101928652071E+00  9.542163108589E+00  1.000317702092E+01  1.048554080213E+01
  1.098977076615E+01  1.151631594957E+01  1.206554342091E+01  1.263772201774E+01
  1.323300447272E+01  1.385140791569E+01  1.449279277251E+01  1.515684012255E+01
  1.584302762600E+01  1.655060419165E+01  1.727856362365E+01  1.802561756446E+01
  1.879016813929E+01  1.957028080423E+01  2.036365800595E+01  2.076449741223E+01
  2.116761437172E+01  2.157260893067E+01  2.197905426403E+01  2.238649617113E+01
  2.279445264845E+01  2.320241354848E+01  2.360984033442E+01  2.401616594056E+01
  2.442079474854E+01  2.482310268971E+01  2.522243748406E+01  2.561811902626E+01
  2.600943992905E+01  2.639566623442E+01  2.677603830248E+01  2.714977188762E+01
  2.751605941129E+01  2.787407143969E+01  2.822295837426E+01  2.856185236178E+01
  2.888986942982E+01  2.920611185215E+01  2.950967074710E+01  2.979962891075E+01
  3.007506388445E+01  3.033505125504E+01  3.057866818339E+01  3.080499715528E+01
  3.101312994580E+01  3.120217178640E+01  3.137124572081E+01  3.151949713361E+01
  3.164609843216E+01  3.175025386022E+01  3.183120441830E+01  3.188823286306E+01
  3.192066875558E+01  3.192789352496E+01  3.190934551167E+01  3.186452495205E+01
  3.179299886351E+01  3.169440578732E+01  3.156846034461E+01  3.141495755924E+01
  3.123377690014E+01  3.102488599497E+01  3.078834396651E+01  3.052430434340E+01
  3.023301749712E+01  2.991483255887E+01  2.957019877104E+01  2.919966623090E+01
  2.880388598670E+01  2.838360945041E+01  2.793968709529E+01  2.747306641189E+01
  2.698478910163E+01  2.647598749379E+01  2.594788017869E+01  2.540176685820E+01
  2.483902242283E+01  2.426109027439E+01  2.366947492261E+01  2.306573389481E+01
  2.245146900824E+01  2.182831706573E+01  2.119794004662E+01  2.056201487583E+01
  1.992222286480E+01  1.928023892839E+01  1.863772069138E+01  1.799629760639E+01
  1.735756021249E+01  1.672304966880E+01  1.609424770087E+01  1.547256709840E+01
  1.485934290143E+01  1.425582440723E+01  1.366316812263E+01  1.308243177524E+01
  1.251456948263E+01  1.196042816075E+01  1.142074523150E+01  1.089614766514E+01
  1.038715236595E+01  9.894167880248E+00  9.417497374484E+00  8.957342799059E+00
  8.513810121577E+00  8.086915482231E+00  7.676592095864E+00  7.282698069057E+00
  6.905025948244E+00  6.543313036758E+00  6.197249515476E+00  5.866491378608E+00
  5.550675640264E+00  5.249423434991E+00  4.962340229494E+00  4.689014236661E+00
  4.429018686753E+00  4.181916634799E+00  3.947263131067E+00  3.724608101531E+00
  3.513498823767E+00  3.313482210880E+00  3.124106885814E+00  2.944925053364E+00
  2.775494176282E+00  2.615378463757E+00  2.464150180640E+00  2.321390786396E+00
  2.186691913147E+00  2.059656192452E+00  1.939897940595E+00  1.827043712247E+00
  1.720732732289E+00  1.620617215530E+00  1.526362583816E+00  1.437647589818E+00
  1.354164356492E+00  1.275618340862E+00  1.201728230390E+00  1.132225779835E+00
  1.066855596028E+00  1.005374877615E+00  9.475531163032E-01  8.931717657604E-01
  8.420238838152E-01  7.939137531879E-01  7.486564855327E-01  7.060776131423E-01
  6.660126722579E-01  6.283067815248E-01  5.928142187546E-01  5.593979987959E-01
  5.279294549738E-01  4.982878262373E-01  4.703598518587E-01  4.440393752509E-01
  4.192269582131E-01  3.958295066822E-01  3.737599088542E-01  3.529366863452E-01
  3.332836588881E-01  3.147296229067E-01  2.972080441651E-01  2.806567645758E-01
  2.650177231338E-01  2.502366908589E-01  2.362630195422E-01  2.230494040296E-01
  2.105516577150E-01  1.987285008716E-01  1.875413614096E-01  1.769541876217E-01
  1.669332724539E-01  1.574470888245E-01  1.484661355037E-01  1.399627930628E-01
  1.319111893997E-01  1.242870743544E-01  1.170677029303E-01  1.102317266524E-01
  1.037590926002E-01  9.763094967102E-02  9.182956164148E-02  8.633822661470E-02
  8.114120245481E-02  7.622363783040E-02  7.157150850556E-02  6.717155853538E-02
  6.301124604082E-02  5.907869325514E-02  5.536264055118E-02  5.185240417486E-02
  4.853783742610E-02  4.540929504262E-02  4.245760055446E-02  3.967401640154E-02
  3.705021658591E-02  3.457826168913E-02  3.225057605680E-02  3.005992697853E-02
  2.799940569761E-02  2.606241009336E-02  2.424262888697E-02  2.253402722975E-02
  2.093083354024E-02  1.942752746410E-02  1.801882883869E-02  1.669968755113E-02
  1.546527418696E-02  1.431097137358E-02  1.323236573077E-02  1.222524034811E-02
  1.128556771656E-02  1.040950304939E-02  9.593377934661E-03  8.833694268653E-03
  8.127118426600E-03  7.470475633301E-03  6.860744502434E-03  6.295051718925E-03
  5.770666843848E-03  5.284997226007E-03  4.835583008442E-03  4.420092221752E-03
  4.036315959212E-03  3.682163631311E-03  3.355658299488E-03  3.054932090566E-03
  2.778221694677E-03  2.523863950415E-03  2.290291521535E-03  2.076028669790E-03
  1.879687128545E-03  1.699962081560E-03  1.535628250995E-03  1.385536098128E-03
  1.248608139642E-03  1.123835381657E-03  1.010273872920E-03  9.070413778416E-04
  8.133141693416E-04  7.283239408181E-04  6.513548359338E-04  5.817405944086E-04
  5.188618115697E-04  4.621433090756E-04  4.110516139813E-04  3.650925431525E-04
  3.238088899547E-04  2.867782101327E-04  2.536107038374E-04  2.239471908474E-04
  1.974571761497E-04  1.738370031854E-04  1.528080922097E-04  1.341152613615E-04
  1.175251281717E-04  1.028245893587E-04  8.981937685732E-05  7.833268810409E-05
  6.820388865352E-05  5.928728523030E-05  5.145096732896E-05  4.457571546278E-05
  3.855397413588E-05  3.328888757378E-05  2.869339619957E-05  2.468939178979E-05
  2.120692918973E-05  1.818349241468E-05  1.556331291531E-05  1.329673774324E-05
  1.133964532022E-05  9.652906491020E-06  8.201888528782E-06  6.955999761479E-06
  5.888272500319E-06  4.974981974889E-06  4.195299015225E-06  3.530974267174E-06
  2.966051783443E-06  2.486609897692E-06  2.080527361730E-06  1.737272805137E-06
  1.447715661374E-06  1.203956793269E-06  9.991771427709E-07  8.275028236611E-07
  6.838851707476E-07  5.639943537691E-07  4.641252580882E-07  3.811144264357E-07
  3.122669458352E-07  2.552922508447E-07  2.082478979158E-07  1.694904456456E-07
  1.376326516847E-07  1.115062688752E-07  9.012979069787E-08  7.268055924371E-08
  5.847070769449E-08  4.692646374598E-08  3.757039062635E-08  3.000618848092E-08
  2.390572106691E-08  1.899797110844E-08  1.505966249764E-08  1.190731900121E-08
  9.390557457270E-09  7.386438844198E-09  5.794723289330E-09  4.533895269148E-09
  3.537751863935E-09  2.752832911377E-09  2.136329537177E-09  1.653273751396E-09
  1.275838734156E-09  9.817647427574E-10  7.532959944431E-10  5.763100540764E-10
  4.396069699616E-10  3.343305716927E-10  2.534987725253E-10  1.916234988084E-10
  1.444040843051E-10  1.084806927390E-10  8.123663422945E-11  6.064037941126E-11
  4.511970090239E-11  3.346173095098E-11  2.473385632804E-11  1.822131140865E-11
  1.337810782597E-11  9.788579874471E-12  7.137351113113E-12  5.185958285478E-12
  3.754719823804E-12  2.708721475011E-12  1.947022485714E-12  1.394371980951E-12
  9.948747608905E-13  7.071654658119E-13  5.007455200080E-13  3.532130861350E-13
  2.481762505531E-13  1.736869377802E-13  1.210701649914E-13  8.405226501860E-14
  5.811430317580E-14  4.001443869638E-14  2.743651808522E-14  1.873259985894E-14
  1.273508558984E-14  8.620215307013E-15  5.809305296004E-15  3.897599946703E-15
  2.603239613744E-15  1.730818061899E-15  1.145474337697E-15  7.545568592911E-16
  4.947057274289E-16  3.227941580206E-16  2.096057805841E-16  1.354423571279E-16
  8.708711369087E-17  5.571544600577E-17  3.546447189792E-17  2.245851846608E-17
  1.414853739231E-17  8.866613863325E-18  5.527039782082E-18  3.426795819516E-18
  2.113083304305E-18  1.295833884210E-18  7.902374297205E-19  4.791950157444E-19
  2.889242192001E-19  1.731979455882E-19  1.032187190600E-19  6.115057923853E-20
  3.601124441666E-20  2.107850488949E-20  1.226235451152E-20  7.089378547098E-21
  4.072958877572E-21  2.325127334962E-21  0.000000000000E+00  0.000000000000E+00
  0.000000000000E+00  0.000000000000E+00  0.000000000000E+00  0.000000000000E+00
  0.000000000000E+00  0.000000000000E+00  0.000000000000E+00  0.000000000000E+00
  0.000000000000E+00  0.000000000000E+00  0.000000000000E+00  0.000000000000E+00
  0.000000000000E+00  0.000000000000E+00  0.000000000000E+00  0.000000000000E+00
  0.000000000000E+00
</data>
</radfunc>
</valence-charge>
<pseudocore-charge matching-radius="0.579533066253"
 number-of-continuous-derivatives="4">
<annotation model-charge-form="Teter function with specified parameters" />
<radfunc>
<data npts="290">
  1.972310979009E+02  1.972015769397E+02  1.971133430121E+02  1.969661857034E+02
  1.967503640320E+02  1.964751711103E+02  1.961247456050E+02  1.957238967031E+02
  1.952737185521E+02  1.947494526673E+02  1.941594353309E+02  1.935192325734E+02
  1.927470475491E+02  1.919423748972E+02  1.911403582073E+02  1.902188147963E+02
  1.891606205154E+02  1.881605175612E+02  1.870396411812E+02  1.857842488893E+02
  1.843792603136E+02  1.831365301033E+02  1.817784241483E+02  1.802952232002E+02
  1.786765972134E+02  1.769116130038E+02  1.749887548259E+02  1.734357696163E+02
  1.717819330542E+02  1.700218351740E+02  1.681499516877E+02  1.661606724921E+02
  1.640483364069E+02  1.618072729040E+02  1.594318516295E+02  1.569165405420E+02
  1.542559735008E+02  1.514450281220E+02  1.494851390731E+02  1.474549608602E+02
  1.453532767461E+02  1.431789856520E+02  1.409311189831E+02  1.386088585845E+02
  1.362115558194E+02  1.337387517487E+02  1.311901983695E+02  1.285658808534E+02
  1.258660406974E+02  1.230911996780E+02  1.202421844629E+02  1.173201517069E+02
  1.143266134152E+02  1.112634623202E+02  1.081329969722E+02  1.049379461947E+02
  1.016814925083E+02  9.836729407000E+01  9.499950462419E+01  9.158279090450E+01
  8.812234687355E+01  8.462390413554E+01  8.109373781035E+01  7.753866711797E+01
  7.396604989143E+01  7.038377021880E+01  6.680021841282E+01  6.501071902859E+01
  6.322426252448E+01  6.144202587275E+01  5.966521065856E+01  5.789504135296E+01
  5.613276341853E+01  5.437964124466E+01  5.263695590984E+01  5.090600276954E+01
  4.918808886857E+01  4.748453017835E+01  4.579664866007E+01  4.412576915615E+01
  4.247321611341E+01  4.084031014298E+01  3.922836442298E+01  3.763868095173E+01
  3.607254666094E+01  3.453122939942E+01  3.301597380033E+01  3.152799704604E+01
  3.006848454680E+01  2.863858555146E+01  2.723940870973E+01  2.587201760803E+01
  2.453742630234E+01  2.323659487339E+01  2.197042503145E+01  2.073975579930E+01
  1.954535930390E+01  1.838793670832E+01  1.726811431701E+01  1.618643988831E+01
  1.514337918903E+01  1.413931282638E+01  1.317453339273E+01  1.224924295868E+01
  1.136355094923E+01  1.051747243701E+01  9.710926885356E+00  8.943737371914E+00
  8.215630321370E+00  7.526235773096E+00  6.875088206080E+00  6.261627939778E+00
  5.685203125106E+00  5.145072334912E+00  4.640407757909E+00  4.170298994194E+00
  3.733757444196E+00  3.329721276267E+00  2.957060951158E+00  2.614585274417E+00
  2.301047940449E+00  2.015154524540E+00  1.755569871901E+00  1.520925825646E+00
  1.309829228848E+00  1.120870129546E+00  9.526301118790E-01  8.036906716576E-01
  6.726415507176E-01  5.580889415243E-01  4.586634718449E-01  3.730278789998E-01
  2.998842843661E-01  2.379809815176E-01  1.861186557215E-01  1.431559584968E-01
  1.080143685808E-01  7.968227989383E-02  5.721826787049E-02  3.975349769282E-02
  2.649325134917E-02  1.671756482456E-02  9.780981834770E-03  5.111446034969E-03
  2.208369214348E-03  6.399282515829E-04  3.965814919076E-05  1.024218762808E-04
  5.798496178295E-04  1.275349959862E-03  2.038803170124E-03  2.761051746286E-03
  3.368305544347E-03  3.816577892584E-03  4.086265056445E-03  4.176974265712E-03
  4.102695376655E-03  3.887398364423E-03  3.561123585137E-03  3.156614583873E-03
  2.706524722791E-03  2.241209713321E-03  1.787098965862E-03  1.365620258359E-03
  9.926353070898E-04  6.783290969069E-04  4.274839165004E-04  2.400604582922E-04
  1.120034485937E-04  3.618826490416E-05  3.427873379228E-06  3.465975989359E-06
  2.589208597081E-05  6.092675483058E-05  1.000395954268E-04  1.363782027278E-04
  1.650016156786E-04  1.829266289782E-04  1.890081464213E-04  1.836850824609E-04
  1.686304622149E-04  1.463479711227E-04  1.197571605655E-04  9.180600503096E-05
  6.514298565547E-05  4.187204387873E-05  2.340349538675E-05  1.040331878375E-05
  2.833157648248E-06  6.484561450654E-08  1.047058989357E-06  4.498346246388E-06
  9.100495221763E-06  1.366885714920E-05  1.728140513549E-05  1.935523770941E-05
  1.966702442835E-05  1.832152390670E-05  1.567881941906E-05  1.225551372601E-05
  8.617276916904E-06  5.279670469953E-06  2.631274097448E-06  8.883648336407E-07
  8.455524366796E-08  0.000000000000E+00  0.000000000000E+00  0.000000000000E+00
  0.000000000000E+00  0.000000000000E+00  0.000000000000E+00  0.000000000000E+00
  0.000000000000E+00  0.000000000000E+00  0.000000000000E+00  0.000000000000E+00
  0.000000000000E+00  0.000000000000E+00  0.000000000000E+00  0.000000000000E+00
  0.000000000000E+00  0.000000000000E+00  0.000000000000E+00  0.000000000000E+00
  0.000000000000E+00  0.000000000000E+00  0.000000000000E+00  0.000000000000E+00
  0.000000000000E+00  0.000000000000E+00  0.000000000000E+00  0.000000000000E+00
  0.000000000000E+00  0.000000000000E+00  0.000000000000E+00  0.000000000000E+00
  0.000000000000E+00  0.000000000000E+00  0.000000000000E+00  0.000000000000E+00
  0.000000000000E+00  0.000000000000E+00  0.000000000000E+00  0.000000000000E+00
  0.000000000000E+00  0.000000000000E+00  0.000000000000E+00  0.000000000000E+00
  0.000000000000E+00  0.000000000000E+00  0.000000000000E+00  0.000000000000E+00
  0.000000000000E+00  0.000000000000E+00  0.000000000000E+00  0.000000000000E+00
  0.000000000000E+00  0.000000000000E+00  0.000000000000E+00  0.000000000000E+00
  0.000000000000E+00  0.000000000000E+00  0.000000000000E+00  0.000000000000E+00
  0.000000000000E+00  0.000000000000E+00  0.000000000000E+00  0.000000000000E+00
  0.000000000000E+00  0.000000000000E+00  0.000000000000E+00  0.000000000000E+00
  0.000000000000E+00  0.000000000000E+00  0.000000000000E+00  0.000000000000E+00
  0.000000000000E+00  0.000000000000E+00  0.000000000000E+00  0.000000000000E+00
  0.000000000000E+00  0.000000000000E+00  0.000000000000E+00  0.000000000000E+00
  0.000000000000E+00  0.000000000000E+00  0.000000000000E+00  0.000000000000E+00
  0.000000000000E+00  0.000000000000E+00
</data>
</radfunc>
</pseudocore-charge>
<semilocal-potentials set="scalar_relativistic">
<slps n="4" l="s" rc="1.25837920589">
<radfunc>
<data npts="290">
  2.847233686702E+01  2.844125991604E+01  2.834852608343E+01  2.819436537496E+01
  2.796939977221E+01  2.768447487952E+01  2.732474806955E+01  2.691744651214E+01
  2.646526191876E+01  2.594551832900E+01  2.536923377784E+01  2.475404669162E+01
  2.402567508088E+01  2.328207452941E+01  2.255610750027E+01  2.174006009177E+01
  2.082606642968E+01  1.998407669055E+01  1.906464398170E+01  1.806405480531E+01
  1.697917311750E+01  1.604894815071E+01  1.506244421620E+01  1.401932092330E+01
  1.291975015661E+01  1.176447408723E+01  1.055485689522E+01  9.613177190236E+00
  8.643169290017E+00  7.646169771313E+00  6.623741578369E+00  5.577672420356E+00
  4.509969840034E+00  3.422852845232E+00  2.318740088641E+00  1.200234684341E+00
  7.010585761071E-02 -1.068732266735E+00 -1.831301464790E+00 -2.595470306766E+00
 -3.360299339492E+00 -4.124837353576E+00 -4.888125046870E+00 -5.649198690311E+00
 -6.407093754714E+00 -7.160848457003E+00 -7.909507185108E+00 -8.652123761976E+00
 -9.387764511100E+00 -1.011551108847E+01 -1.083446304878E+01 -1.154374011744E+01
 -1.224248414337E+01 -1.292986071243E+01 -1.360506040514E+01 -1.426729968763E+01
 -1.491582142921E+01 -1.554989504515E+01 -1.616881626833E+01 -1.677190655835E+01
 -1.735851216237E+01 -1.792800284678E+01 -1.847977032497E+01 -1.901322641194E+01
 -1.952780094294E+01 -2.002293950031E+01 -2.049810100033E+01 -2.072802429820E+01
 -2.095275520027E+01 -2.117222870930E+01 -2.138638019602E+01 -2.159514532621E+01
 -2.179845999116E+01 -2.199626024225E+01 -2.218848223070E+01 -2.237506215330E+01
 -2.255593620523E+01 -2.273104054088E+01 -2.290031124382E+01 -2.306368430702E+01
 -2.322109562421E+01 -2.337248099356E+01 -2.351777613468E+01 -2.365691671966E+01
 -2.378983841899E+01 -2.391647696306E+01 -2.403676821927E+01 -2.415064828523E+01
 -2.425805359750E+01 -2.435892105558E+01 -2.445318815991E+01 -2.454079316294E+01
 -2.462167523118E+01 -2.469577461653E+01 -2.476303283437E+01 -2.482339284610E+01
 -2.487679924354E+01 -2.492319843275E+01 -2.496253881537E+01 -2.499477096566E+01
 -2.501984780251E+01 -2.503772475616E+01 -2.504835993066E+01 -2.505171426389E+01
 -2.504775168811E+01 -2.503643929493E+01 -2.501774750929E+01 -2.499165027784E+01
 -2.495812527695E+01 -2.491715414592E+01 -2.486872275028E+01 -2.481282147936E+01
 -2.474944558132E+01 -2.467859553748E+01 -2.460027747638E+01 -2.451450362647E+01
 -2.442129280493E+01 -2.432067093848E+01 -2.421267161112E+01 -2.409733663248E+01
 -2.397471662011E+01 -2.384487158848E+01 -2.370787153783E+01 -2.356379703657E+01
 -2.341273979204E+01 -2.325480320606E+01 -2.309010291380E+01 -2.291876730693E+01
 -2.274093804483E+01 -2.255677056067E+01 -2.236643457252E+01 -2.217011461235E+01
 -2.196801058957E+01 -2.176033840804E+01 -2.154733065862E+01 -2.132923741166E+01
 -2.110632713611E+01 -2.087888777394E+01 -2.064722800041E+01 -2.041167870226E+01
 -2.017259470720E+01 -1.993035679869E+01 -1.968537405031E+01 -1.943808651266E+01
 -1.918896828356E+01 -1.893853098725E+01 -1.868732768099E+01 -1.843595719586E+01
 -1.818506890322E+01 -1.793536787621E+01 -1.768762038830E+01 -1.744265965537E+01
 -1.720139168458E+01 -1.696480104174E+01 -1.673395628938E+01 -1.651001478082E+01