<?xml version="1.0" encoding="UTF-8" ?>
<psml version="1.1" energy_unit="hartree" length_unit="bohr"
 uuid="3fe6ba40-5171-11e8-7d93-a277fdfe279d"
 xmlns="http://esl.cecam.org/PSML/ns/1.1">
<provenance creator="ONCVPSP-3.3.0+psml-3.3.0-73 (fully-relativistic)"
 date="2018-05-06">
<annotation action="semilocal-pseudopotential-generation"
 action-cont="projectors-generation" />
<input-file name="oncvpsp-input">
<![CDATA[# atsym z nc nv iexc psfile
Cd 48 6 4 4 both
# n l f
1 0 2.0
2 0 2.0
2 1 6.0
3 0 2.0
3 1 6.0
3 2 10.0
4 0 2.0
4 1 6.0
4 2 10.0
5 0 2.0
# lmax
2
# l rc ep ncon nbas qcut
0 1.2 0.0 4 8 10.2
1 1.2 0.0 4 8 11.2
2 1.25 0.0 4 8 11.2
# lloc lpopt rc5 dvloc0
4 5 1.15 0.0
# l nproj debl
0 2 2.0
1 2 2.0
2 2 2.0
# icmod fcfact rcfact
3 6.0 1.26
# epsh1 epsh2 depsh
-12.0 12.0 0.02
# rlmax drl
6.0 0.01
 0
]]>
</input-file>
</provenance>
<pseudo-atom-spec atomic-label="Cd" atomic-number="48" z-pseudo="20"
 flavor="Hamann&apos;s oncvpsp" relativity="dirac" spin-dft="no"
 core-corrections="yes">
<annotation pseudo-energy="-167.752326887" />
<exchange-correlation>
<annotation oncvpsp-xc-code="4" oncvpsp-xc-type="GGA -- Perdew-Burke-Ernzerhof" />
<libxc-info number-of-functionals="2">
<functional name="Perdew, Burke &amp; Ernzerhof (GGA)" type="exchange" id="101" />
<functional name="Perdew, Burke &amp; Ernzerhof (GGA)" type="correlation"
 id="130" />
</libxc-info>
</exchange-correlation>
<valence-configuration total-valence-charge="20">
<shell n="4" l="s" occupation="2" />
<shell n="4" l="p" occupation="6" />
<shell n="4" l="d" occupation="10" />
<shell n="5" l="s" occupation="2" />
</valence-configuration>
</pseudo-atom-spec>
<grid npts="457">
<annotation type="sampled from oncvpsp log grid"
 recipe="r(i:1..N) = r1*exp(a*(i-1)) + r=0; resampled"
 recipe-cont="r1: scale; a: step" scale="0.104166666667E-04"
 step="0.119285708653E-01" delta="0.500000000000E-02" rmax="44.0153601024" />
<grid-data>
  0.000000000000E+00  5.026136093974E-03  1.003931241072E-02  1.506056948927E-02
  2.029337154766E-02  2.545563554462E-02  3.080861283122E-02  3.597649143716E-02
  4.102083010503E-02  4.621783200185E-02  5.145578192561E-02  5.660806138672E-02
  6.227623979354E-02  6.769957927664E-02  7.272254093181E-02  7.811818058674E-02
  8.391414903812E-02  8.907129311261E-02  9.454538177047E-02  1.003558935966E-01
  1.065235042789E-01  1.117294072913E-01  1.171897276397E-01  1.229168989365E-01
  1.289239624366E-01  1.352245967329E-01  1.418331489041E-01  1.470006592726E-01
  1.523564413084E-01  1.579073544501E-01  1.636605080513E-01  1.696232704860E-01
  1.758032785853E-01  1.822084474188E-01  1.888469804314E-01  1.957273799500E-01
  2.028584580733E-01  2.102493479572E-01  2.153256082143E-01  2.205244296990E-01
  2.258487715297E-01  2.313016642695E-01  2.368862116516E-01  2.426055923457E-01
  2.484630617673E-01  2.544619539307E-01  2.606056833464E-01  2.668977469651E-01
  2.733417261678E-01  2.799412888044E-01  2.867001912813E-01  2.936222806996E-01
  3.007114970448E-01  3.079718754294E-01  3.154075483898E-01  3.230227482381E-01
  3.308218094716E-01  3.388091712395E-01  3.469893798699E-01  3.553670914575E-01
  3.639470745136E-01  3.727342126807E-01  3.817335075116E-01  3.909500813170E-01
  4.003891800803E-01  4.100561764442E-01  4.199565727682E-01  4.249960516415E-01
  4.300960042611E-01  4.352571563123E-01  4.404802421880E-01  4.457660050943E-01
  4.511151971554E-01  4.565285795213E-01  4.620069224755E-01  4.675510055452E-01
  4.731616176118E-01  4.788395570231E-01  4.845856317074E-01  4.904006592879E-01
  4.962854671994E-01  5.022408928057E-01  5.082677835194E-01  5.143669969216E-01
  5.205394008847E-01  5.267858736953E-01  5.331073041797E-01  5.395045918298E-01
  5.459786469318E-01  5.525303906950E-01  5.591607553833E-01  5.658706844479E-01
  5.726611326613E-01  5.795330662532E-01  5.864874630482E-01  5.935253126048E-01
  6.006476163561E-01  6.078553877524E-01  6.151496524054E-01  6.225314482343E-01
  6.300018256131E-01  6.375618475204E-01  6.452125896907E-01  6.529551407670E-01
  6.607906024562E-01  6.687200896856E-01  6.767447307619E-01  6.848656675310E-01
  6.930840555414E-01  7.014010642079E-01  7.098178769784E-01  7.183356915021E-01
  7.269557198001E-01  7.356791884377E-01  7.445073386990E-01  7.534414267634E-01
  7.624827238845E-01  7.716325165711E-01  7.808921067700E-01  7.902628120512E-01
  7.997459657959E-01  8.093429173854E-01  8.190550323940E-01  8.288836927828E-01
  8.388302970962E-01  8.488962606613E-01  8.590830157892E-01  8.693920119787E-01
  8.798247161225E-01  8.903826127159E-01  9.010672040685E-01  9.118800105173E-01
  9.228225706435E-01  9.338964414913E-01  9.451031987892E-01  9.564444371746E-01
  9.679217704207E-01  9.795368316658E-01  9.912912736458E-01  1.003186768930E+00
  1.015225010157E+00  1.027407710279E+00  1.039736602802E+00  1.052213442036E+00
  1.064840003340E+00  1.077618083380E+00  1.090549500381E+00  1.103636094385E+00
  1.116879727518E+00  1.130282284248E+00  1.143845671659E+00  1.157571819719E+00
  1.171462681555E+00  1.185520233734E+00  1.199746476539E+00  1.214143434257E+00
  1.228713155469E+00  1.243457713334E+00  1.258379205894E+00  1.273479756365E+00
  1.288761513441E+00  1.304226651603E+00  1.319877371422E+00  1.335715899879E+00
  1.351744490677E+00  1.367965424566E+00  1.384381009660E+00  1.400993581776E+00
  1.417805504758E+00  1.434819170815E+00  1.452037000864E+00  1.469461444875E+00
  1.487094982213E+00  1.504940122000E+00  1.522999403464E+00  1.541275396305E+00
  1.559770701061E+00  1.578487949474E+00  1.597429804868E+00  1.616598962526E+00
  1.635998150076E+00  1.655630127877E+00  1.675497689412E+00  1.695603661685E+00
  1.715950905625E+00  1.736542316492E+00  1.757380824290E+00  1.778469394182E+00
  1.799811026912E+00  1.821408759235E+00  1.843265664346E+00  1.865384852318E+00
  1.887769470546E+00  1.910422704192E+00  1.933347776642E+00  1.956547949962E+00
  1.980026525362E+00  2.003786843666E+00  2.027832285790E+00  2.052166273220E+00
  2.076792268498E+00  2.101713775720E+00  2.126934341029E+00  2.152457553121E+00
  2.178287043759E+00  2.204426488284E+00  2.230879606143E+00  2.257650161417E+00
  2.284741963354E+00  2.312158866914E+00  2.339904773317E+00  2.367983630597E+00
  2.396399434164E+00  2.425156227374E+00  2.454258102102E+00  2.483709199328E+00
  2.513513709720E+00  2.543675874236E+00  2.574199984727E+00  2.605090384544E+00
  2.636351469158E+00  2.667987686788E+00  2.700003539030E+00  2.732403581498E+00
  2.765192424476E+00  2.798374733570E+00  2.831955230373E+00  2.865938693137E+00
  2.900329957455E+00  2.935133916944E+00  2.970355523947E+00  3.005999790235E+00
  3.042071787718E+00  3.078576649170E+00  3.115519568960E+00  3.152905803788E+00
  3.190740673433E+00  3.229029561514E+00  3.267777916253E+00  3.306991251248E+00
  3.346675146263E+00  3.386835248018E+00  3.427477270994E+00  3.468606998246E+00
  3.510230282225E+00  3.552353045612E+00  3.594981282159E+00  3.638121057545E+00
  3.681778510235E+00  3.725959852358E+00  3.770671370587E+00  3.815919427034E+00
  3.861710460158E+00  3.908050985680E+00  3.954947597508E+00  4.002406968678E+00
  4.050435852302E+00  4.099041082530E+00  4.148229575520E+00  4.198008330426E+00
  4.248384430392E+00  4.299365043556E+00  4.350957424079E+00  4.403168913168E+00
  4.456006940126E+00  4.509479023407E+00  4.563592771688E+00  4.618355884949E+00
  4.673776155568E+00  4.729861469435E+00  4.786619807068E+00  4.844059244753E+00
  4.902187955690E+00  4.961014211158E+00  5.020546381692E+00  5.080792938272E+00
  5.141762453532E+00  5.203463602974E+00  5.265905166210E+00  5.329096028204E+00
  5.393045180543E+00  5.457761722709E+00  5.523254863382E+00  5.589533921742E+00
  5.656608328803E+00  5.724487628749E+00  5.793181480294E+00  5.862699658057E+00
  5.933052053954E+00  6.004248678601E+00  6.076299662745E+00  6.149215258698E+00
  6.223005841802E+00  6.297681911904E+00  6.373254094846E+00  6.449733143985E+00
  6.527129941712E+00  6.605455501013E+00  6.684720967025E+00  6.764937618629E+00
  6.846116870053E+00  6.928270272494E+00  7.011409515764E+00  7.095546429953E+00
  7.180692987112E+00  7.266861302957E+00  7.354063638593E+00  7.442312402256E+00
  7.531620151083E+00  7.621999592896E+00  7.713463588011E+00  7.806025151067E+00
  7.899697452880E+00  7.994493822314E+00  8.090427748182E+00  8.187512881160E+00
  8.285763035734E+00  8.385192192163E+00  8.485814498469E+00  8.587644272451E+00
  8.690696003720E+00  8.794984355765E+00  8.900524168034E+00  9.007330458050E+00
  9.115418423547E+00  9.224803444629E+00  9.335501085965E+00  9.447527098997E+00
  9.560897424185E+00  9.675628193275E+00  9.791735731594E+00  9.909236560373E+00
  1.002814739910E+01  1.014848516789E+01  1.027026698990E+01  1.039351019378E+01
  1.051823231611E+01  1.064445110390E+01  1.077218451715E+01  1.090145073135E+01
  1.103226814013E+01  1.116465535781E+01  1.129863122210E+01  1.143421479677E+01
  1.157142537433E+01  1.171028247882E+01  1.185080586857E+01  1.199301553899E+01
  1.213693172546E+01  1.228257490616E+01  1.242996580504E+01  1.257912539470E+01
  1.273007489943E+01  1.288283579823E+01  1.303742982781E+01  1.319387898574E+01
  1.335220553357E+01  1.351243199997E+01  1.367458118397E+01  1.383867615818E+01
  1.400474027208E+01  1.417279715534E+01  1.434287072121E+01  1.451498516986E+01
  1.468916499190E+01  1.486543497180E+01  1.504382019146E+01  1.522434603376E+01
  1.540703818617E+01  1.559192264440E+01  1.577902571613E+01  1.596837402473E+01
  1.615999451302E+01  1.635391444718E+01  1.655016142055E+01  1.674876335759E+01
  1.694974851788E+01  1.715314550010E+01  1.735898324610E+01  1.756729104505E+01
  1.777809853759E+01  1.799143572004E+01  1.820733294868E+01  1.842582094407E+01
  1.864693079540E+01  1.887069396494E+01  1.909714229252E+01  1.932630800003E+01
  1.955822369603E+01  1.979292238038E+01  2.003043744895E+01  2.027080269834E+01
  2.051405233072E+01  2.076022095868E+01  2.100934361019E+01  2.126145573351E+01
  2.151659320231E+01  2.177479232074E+01  2.203608982859E+01  2.230052290653E+01
  2.256812918141E+01  2.283894673159E+01  2.311301409237E+01  2.339037026148E+01
  2.367105470461E+01  2.395510736107E+01  2.424256864940E+01  2.453347947319E+01
  2.482788122687E+01  2.512581580160E+01  2.542732559121E+01  2.573245349831E+01
  2.604124294029E+01  2.635373785557E+01  2.666998270984E+01  2.699002250236E+01
  2.731390277239E+01  2.764166960565E+01  2.797336964092E+01  2.830905007661E+01
  2.864875867753E+01  2.899254378166E+01  2.934045430704E+01  2.969253975873E+01
  3.004885023583E+01  3.040943643866E+01  3.077434967593E+01  3.114364187204E+01
  3.151736557450E+01  3.189557396140E+01  3.227832084893E+01  3.266566069912E+01
  3.305764862751E+01  3.345434041104E+01  3.385579249597E+01  3.426206200592E+01
  3.467320674999E+01  3.508928523099E+01  3.551035665377E+01  3.593648093361E+01
  3.636771870482E+01  3.680413132927E+01  3.724578090522E+01  3.769273027609E+01
  3.814504303940E+01  3.860278355587E+01  3.906601695854E+01  3.953480916205E+01
  4.000922687199E+01  4.048933759445E+01  4.097520964559E+01  4.146691216133E+01
  4.196451510727E+01  4.246808928856E+01  4.297770636002E+01  4.349343883634E+01
  4.401536010238E+01
</grid-data>
</grid>
<valence-charge total-charge="20" is-unscreening-charge="yes"
 rescaled-to-z-pseudo="no">
<radfunc>
<data npts="457">
  1.438292564778E-01  1.453218075835E-01  1.497893065216E-01  1.572618431800E-01
  1.682699820364E-01  1.823907534909E-01  2.005088595225E-01  2.214223627798E-01
  2.451494127488E-01  2.731016327839E-01  3.049723487599E-01  3.400493029419E-01
  3.830449458688E-01  4.286508846188E-01  4.749220029267E-01  5.290969522782E-01
  5.926382197925E-01  6.540048929164E-01  7.243040409202E-01  8.049556019879E-01
  8.976272119740E-01  9.817255041481E-01  1.075926047960E+00  1.181551933518E+00
  1.300110979811E+00  1.433321122496E+00  1.583138569746E+00  1.707727855459E+00
  1.843953255415E+00  1.992967823767E+00  2.156037463602E+00  2.334549833586E+00
  2.530023266231E+00  2.744115468172E+00  2.978631702205E+00  3.235532065960E+00
  3.516937381469E+00  3.825133091898E+00  4.046684157706E+00  4.281994976265E+00
  4.531863931181E+00  4.797119649926E+00  5.078619150790E+00  5.377245341374E+00
  5.693903772963E+00  6.029518546952E+00  6.385027261619E+00  6.761374880103E+00
  7.159506393966E+00  7.580358151435E+00  8.024847715965E+00  8.493862119606E+00
  8.988244377573E+00  9.508778136069E+00  1.005617033581E+01  1.063103178967E+01
  1.123385559557E+01  1.186499333637E+01  1.252462905790E+01  1.321275106631E+01
  1.392912164701E+01  1.467324488101E+01  1.544433282172E+01  1.624127039610E+01
  1.706257950912E+01  1.790638295967E+01  1.877036891757E+01  1.920908061749E+01
  1.965175686406E+01  2.009797168266E+01  2.054726605851E+01  2.099914717740E+01
  2.145308775801E+01  2.190852548823E+01  2.236486257843E+01  2.282146544490E+01
  2.327766453738E+01  2.373275432476E+01  2.418599345323E+01  2.463660509158E+01
  2.508377747810E+01  2.552666468355E+01  2.596438760446E+01  2.639603520064E+01
  2.682066598998E+01  2.723730981308E+01  2.764496987928E+01  2.804262510406E+01
  2.842923274695E+01  2.880373135671E+01  2.916504402921E+01  2.951208198071E+01
  2.984374843707E+01  3.015894283649E+01  3.045656534041E+01  3.073552164387E+01
  3.099472807301E+01  3.123311695385E+01  3.144964223208E+01  3.164328531980E+01
  3.181306114057E+01  3.195802433979E+01  3.207727562288E+01  3.216996817933E+01
  3.223531414607E+01  3.227259105954E+01  3.228114824160E+01  3.226041306057E+01
  3.220989700555E+01  3.212920150893E+01  3.201802344977E+01  3.187616026906E+01
  3.170351462696E+01  3.150009853186E+01  3.126603687219E+01  3.100157028376E+01
  3.070705728826E+01  3.038297564291E+01  3.002992284646E+01  2.964861575343E+01
  2.923988925613E+01  2.880469400318E+01  2.834409313328E+01  2.785925801429E+01
  2.735146298973E+01  2.682207914810E+01  2.627256714376E+01  2.570446911242E+01
  2.511939973860E+01  2.451903654661E+01  2.390510950051E+01  2.327939001199E+01
  2.264367946711E+01  2.199979739420E+01  2.134956940449E+01  2.069481504448E+01
  2.003733570466E+01  1.937890273166E+01  1.872124589139E+01  1.806604232781E+01
  1.741490615635E+01  1.676937882241E+01  1.613092034361E+01  1.550090153990E+01
  1.488059733882E+01  1.427118122326E+01  1.367372086806E+01  1.308917498880E+01
  1.251839140239E+01  1.196210627523E+01  1.142094451141E+01  1.089542121110E+01
  1.038594410971E+01  9.892816891982E+00  9.416243264239E+00  8.956331661249E+00
  8.513101695017E+00  8.086499714835E+00  7.676416320377E+00  7.282690258895E+00
  6.905112915163E+00  6.543433644552E+00  6.197364600752E+00  5.866585023995E+00
  5.550745444425E+00  5.249471690326E+00  4.962368684252E+00  4.689024031194E+00
  4.429011390977E+00  4.181893631886E+00  3.947225764226E+00  3.724557654396E+00
  3.513436521745E+00  3.313409221606E+00  3.124024319710E+00  2.944833964338E+00
  2.775395562543E+00  2.615273268747E+00  2.464039294073E+00  2.321275045391E+00
  2.186572103451E+00  2.059533049743E+00  1.939772151857E+00  1.826915917202E+00
  1.720603524897E+00  1.620487145522E+00  1.526232158269E+00  1.437517274768E+00
  1.354034578567E+00  1.275489488928E+00  1.201600657212E+00  1.132099803739E+00
  1.066731502566E+00  1.005252921211E+00  9.474335218990E-01  8.930547304305E-01
  8.419095783662E-01  7.938023237272E-01  7.485480550056E-01  7.059722828349E-01
  6.659105232605E-01  6.282078761547E-01  5.927186019349E-01  5.593056993890E-01
  5.278404870662E-01  4.982021903763E-01  4.702775362384E-01  4.439603568472E-01
  4.191512038668E-01  3.957569741305E-01  3.736905477099E-01  3.528704390241E-01
  3.332204614855E-01  3.146694060217E-01  2.971507336765E-01  2.806022823678E-01
  2.649659877742E-01  2.501876182298E-01  2.362165234262E-01  2.230053966510E-01
  2.105100502393E-01  1.986892038631E-01  1.875042852502E-01  1.769192428922E-01
  1.669003702788E-01  1.574161411826E-01  1.484370555064E-01  1.399354952012E-01
  1.318855897632E-01  1.242630908207E-01  1.170452553310E-01  1.102107369136E-01
  1.037394848607E-01  9.761265037964E-02  9.181249963503E-02  8.632233317783E-02
  8.112641136338E-02  7.620988537964E-02  7.155873352435E-02  6.715970238790E-02
  6.300025261680E-02  5.906850894981E-02  5.535321423600E-02  5.184368716010E-02
  4.852978341612E-02  4.540186008492E-02  4.245074298319E-02  3.966769677638E-02
  3.704439762699E-02  3.457290820873E-02  3.224565488844E-02  3.005540690400E-02
  2.799525737262E-02  2.605860597216E-02  2.423914314650E-02  2.253083569368E-02
  2.092791360328E-02  1.942485801703E-02  1.801639019420E-02  1.669746137098E-02
  1.546324341055E-02  1.430912014817E-02  1.323067934362E-02  1.222370516050E-02
  1.128417110007E-02  1.040823332434E-02  9.592224310892E-03  8.832646788728E-03
  8.126167911377E-03  7.469613629987E-03  6.859963235101E-03  6.294344041472E-03
  5.770026195400E-03  5.284417588711E-03  4.835058867624E-03  4.419618528376E-03
  4.035888094576E-03  3.681777373926E-03  3.355309794055E-03  3.054617818970E-03
  2.777938448925E-03  2.523608807429E-03  2.290061819710E-03  2.075821987239E-03
  1.879501262927E-03  1.699795031425E-03  1.535478198539E-03  1.385401393287E-03
  1.248487285439E-03  1.123727020718E-03  1.010176775084E-03  9.069544287895E-04
  8.132363601749E-04  7.282543585137E-04  6.512926546138E-04  5.816850673620E-04
  5.188122639683E-04  4.620991313293E-04  4.110122556808E-04  3.650575075521E-04
  3.237777289500E-04  2.867505196920E-04  2.535861198471E-04  2.239253853364E-04
  1.974378538598E-04  1.738198984565E-04  1.527929661524E-04  1.341018992912E-04
  1.175133372805E-04  1.028141966034E-04  8.981022704461E-05  7.832464215351E-05
  6.819682202337E-05  5.928108649050E-05  5.144553686779E-05  4.457096431503E-05
  3.854982292128E-05  3.328526553553E-05  2.869024033378E-05  2.468664605743E-05
  2.120454380363E-05  1.818142319453E-05  1.556152070458E-05  1.329518788227E-05
  1.133830717038E-05  9.651753005258E-06  8.200895864326E-06  6.955146930808E-06
  5.887541056924E-06  4.974355730607E-06  4.194763786242E-06  3.530517646024E-06
  2.965662934600E-06  2.486279374529E-06  2.080246942833E-06  1.737035348129E-06
  1.447514972565E-06  1.203787511603E-06  9.990346366554E-07  8.273830994123E-07
  6.837847914753E-07  5.639103676434E-07  4.640551350179E-07  3.810560022780E-07
  3.122183733369E-07  2.552519565891E-07  2.082145446171E-07  1.694628991965E-07
  1.376099524191E-07  1.114876065622E-07  9.011448283053E-08  7.266803223198E-08
  5.846048061107E-08  4.691813431175E-08  3.756362315562E-08  3.000070353757E-08
  2.390128661053E-08  1.899439493470E-08  1.505678580008E-08  1.190501090211E-08
  9.388710373863E-09  7.384964572933E-09  5.793549705728E-09  4.532963553985E-09
  3.537015245349E-09  2.752251565866E-09  2.135871704309E-09  1.652914209498E-09
  1.275557188612E-09  9.815449107492E-10  7.531248500810E-10  5.761772076931E-10
  4.395041592918E-10  3.342512460528E-10  2.534377540534E-10  1.915767073478E-10
  1.443683146817E-10  1.084534350294E-10  8.121592918875E-11  6.062470255999E-11
  4.510786989667E-11  3.345283180372E-11  2.472718484137E-11  1.821632683844E-11
  1.337439634867E-11  9.785825881691E-12  7.135314735362E-12  5.184457855017E-12
  3.753618239926E-12  2.707915641386E-12  1.946435157289E-12  1.393945493818E-12
  9.945662280897E-13  7.069431101405E-13  5.005858853229E-13  3.530989248222E-13
  2.480949294038E-13  1.736292397646E-13  1.210293921702E-13  8.402356959733E-14
  5.809419069785E-14  4.000040058756E-14  2.742676099498E-14  1.872584713323E-14
  1.273043226821E-14  8.617022666362E-15  5.807124487339E-15  3.896116940665E-15
  2.602235684527E-15  1.730141551012E-15  1.145020569115E-15  7.542539182495E-16
  4.945044376648E-16  3.226610510865E-16  2.095181874013E-16  1.353849976102E-16
  8.704973872207E-17  5.569121504451E-17  3.544884226167E-17  2.244848873739E-17
  1.414213466780E-17  8.862548036819E-18  5.524471669150E-18  3.425182452982E-18
  2.112075264606E-18  1.295207530625E-18  7.898504126076E-19  4.789572329533E-19
  2.887789609025E-19  1.731097225467E-19  1.031654501813E-19  6.111860611462E-20
  3.599216848613E-20  2.106719276153E-20  1.225568753125E-20  7.085473662006E-21
  4.070686141424E-21  2.323812961415E-21  0.000000000000E+00  0.000000000000E+00
  0.000000000000E+00  0.000000000000E+00  0.000000000000E+00  0.000000000000E+00
  0.000000000000E+00  0.000000000000E+00  0.000000000000E+00  0.000000000000E+00
  0.000000000000E+00  0.000000000000E+00  0.000000000000E+00  0.000000000000E+00
  0.000000000000E+00  0.000000000000E+00  0.000000000000E+00  0.000000000000E+00
  0.000000000000E+00
</data>
</radfunc>
</valence-charge>
<pseudocore-charge matching-radius="0.579533066253"
 number-of-continuous-derivatives="4">
<annotation model-charge-form="Teter function with specified parameters" />
<radfunc>
<data npts="290">
  1.972310979009E+02  1.972015769397E+02  1.971133430121E+02  1.969661857034E+02
  1.967503640320E+02  1.964751711103E+02  1.961247456050E+02  1.957238967031E+02
  1.952737185521E+02  1.947494526673E+02  1.941594353309E+02  1.935192325734E+02
  1.927470475491E+02  1.919423748972E+02  1.911403582073E+02  1.902188147963E+02
  1.891606205154E+02  1.881605175612E+02  1.870396411812E+02  1.857842488893E+02
  1.843792603136E+02  1.831365301033E+02  1.817784241483E+02  1.802952232002E+02
  1.786765972134E+02  1.769116130038E+02  1.749887548259E+02  1.734357696163E+02
  1.717819330542E+02  1.700218351740E+02  1.681499516877E+02  1.661606724921E+02
  1.640483364069E+02  1.618072729040E+02  1.594318516295E+02  1.569165405420E+02
  1.542559735008E+02  1.514450281220E+02  1.494851390731E+02  1.474549608602E+02
  1.453532767461E+02  1.431789856520E+02  1.409311189831E+02  1.386088585845E+02
  1.362115558194E+02  1.337387517487E+02  1.311901983695E+02  1.285658808534E+02
  1.258660406974E+02  1.230911996780E+02  1.202421844629E+02  1.173201517069E+02
  1.143266134152E+02  1.112634623202E+02  1.081329969722E+02  1.049379461947E+02
  1.016814925083E+02  9.836729407000E+01  9.499950462419E+01  9.158279090450E+01
  8.812234687355E+01  8.462390413554E+01  8.109373781035E+01  7.753866711797E+01
  7.396604989143E+01  7.038377021880E+01  6.680021841282E+01  6.501071902859E+01
  6.322426252448E+01  6.144202587275E+01  5.966521065856E+01  5.789504135296E+01
  5.613276341853E+01  5.437964124466E+01  5.263695590984E+01  5.090600276954E+01
  4.918808886857E+01  4.748453017835E+01  4.579664866007E+01  4.412576915615E+01
  4.247321611341E+01  4.084031014298E+01  3.922836442298E+01  3.763868095173E+01
  3.607254666094E+01  3.453122939942E+01  3.301597380033E+01  3.152799704604E+01
  3.006848454680E+01  2.863858555146E+01  2.723940870973E+01  2.587201760803E+01
  2.453742630234E+01  2.323659487339E+01  2.197042503145E+01  2.073975579930E+01
  1.954535930390E+01  1.838793670832E+01  1.726811431701E+01  1.618643988831E+01
  1.514337918903E+01  1.413931282638E+01  1.317453339273E+01  1.224924295868E+01
  1.136355094923E+01  1.051747243701E+01  9.710926885356E+00  8.943737371914E+00
  8.215630321370E+00  7.526235773096E+00  6.875088206080E+00  6.261627939778E+00
  5.685203125106E+00  5.145072334912E+00  4.640407757909E+00  4.170298994194E+00
  3.733757444196E+00  3.329721276267E+00  2.957060951158E+00  2.614585274417E+00
  2.301047940449E+00  2.015154524540E+00  1.755569871901E+00  1.520925825646E+00
  1.309829228848E+00  1.120870129546E+00  9.526301118790E-01  8.036906716576E-01
  6.726415507176E-01  5.580889415243E-01  4.586634718449E-01  3.730278789998E-01
  2.998842843661E-01  2.379809815176E-01  1.861186557215E-01  1.431559584968E-01
  1.080143685808E-01  7.968227989383E-02  5.721826787049E-02  3.975349769282E-02
  2.649325134917E-02  1.671756482456E-02  9.780981834770E-03  5.111446034969E-03
  2.208369214348E-03  6.399282515829E-04  3.965814919076E-05  1.024218762808E-04
  5.798496178295E-04  1.275349959862E-03  2.038803170124E-03  2.761051746286E-03
  3.368305544347E-03  3.816577892584E-03  4.086265056445E-03  4.176974265712E-03
  4.102695376655E-03  3.887398364423E-03  3.561123585137E-03  3.156614583873E-03
  2.706524722791E-03  2.241209713321E-03  1.787098965862E-03  1.365620258359E-03
  9.926353070898E-04  6.783290969069E-04  4.274839165004E-04  2.400604582922E-04
  1.120034485937E-04  3.618826490416E-05  3.427873379228E-06  3.465975989359E-06
  2.589208597081E-05  6.092675483058E-05  1.000395954268E-04  1.363782027278E-04
  1.650016156786E-04  1.829266289782E-04  1.890081464213E-04  1.836850824609E-04
  1.686304622149E-04  1.463479711227E-04  1.197571605655E-04  9.180600503096E-05
  6.514298565547E-05  4.187204387873E-05  2.340349538675E-05  1.040331878375E-05
  2.833157648248E-06  6.484561450654E-08  1.047058989357E-06  4.498346246388E-06
  9.100495221763E-06  1.366885714920E-05  1.728140513549E-05  1.935523770941E-05
  1.966702442835E-05  1.832152390670E-05  1.567881941906E-05  1.225551372601E-05
  8.617276916904E-06  5.279670469953E-06  2.631274097448E-06  8.883648336407E-07
  8.455524366796E-08  0.000000000000E+00  0.000000000000E+00  0.000000000000E+00
  0.000000000000E+00  0.000000000000E+00  0.000000000000E+00  0.000000000000E+00
  0.000000000000E+00  0.000000000000E+00  0.000000000000E+00  0.000000000000E+00
  0.000000000000E+00  0.000000000000E+00  0.000000000000E+00  0.000000000000E+00
  0.000000000000E+00  0.000000000000E+00  0.000000000000E+00  0.000000000000E+00
  0.000000000000E+00  0.000000000000E+00  0.000000000000E+00  0.000000000000E+00
  0.000000000000E+00  0.000000000000E+00  0.000000000000E+00  0.000000000000E+00
  0.000000000000E+00  0.000000000000E+00  0.000000000000E+00  0.000000000000E+00
  0.000000000000E+00  0.000000000000E+00  0.000000000000E+00  0.000000000000E+00
  0.000000000000E+00  0.000000000000E+00  0.000000000000E+00  0.000000000000E+00
  0.000000000000E+00  0.000000000000E+00  0.000000000000E+00  0.000000000000E+00
  0.000000000000E+00  0.000000000000E+00  0.000000000000E+00  0.000000000000E+00
  0.000000000000E+00  0.000000000000E+00  0.000000000000E+00  0.000000000000E+00
  0.000000000000E+00  0.000000000000E+00  0.000000000000E+00  0.000000000000E+00
  0.000000000000E+00  0.000000000000E+00  0.000000000000E+00  0.000000000000E+00
  0.000000000000E+00  0.000000000000E+00  0.000000000000E+00  0.000000000000E+00
  0.000000000000E+00  0.000000000000E+00  0.000000000000E+00  0.000000000000E+00
  0.000000000000E+00  0.000000000000E+00  0.000000000000E+00  0.000000000000E+00
  0.000000000000E+00  0.000000000000E+00  0.000000000000E+00  0.000000000000E+00
  0.000000000000E+00  0.000000000000E+00  0.000000000000E+00  0.000000000000E+00
  0.000000000000E+00  0.000000000000E+00  0.000000000000E+00  0.000000000000E+00
  0.000000000000E+00  0.000000000000E+00
</data>
</radfunc>
</pseudocore-charge>
<semilocal-potentials set="scalar_relativistic">
<slps n="4" l="s" rc="1.21414343426">
<radfunc>
<data npts="290">
  9.501135469725E+01  9.487391918550E+01  9.446471768123E+01  9.378747252480E+01
  9.280586479565E+01  9.157389574697E+01  9.003619774828E+01  8.831854437854E+01
  8.644011623850E+01  8.431720834500E+01  8.200738617432E+01  7.959125561020E+01
  7.679472049055E+01  7.400897119824E+01  7.135437072814E+01  6.844433149047E+01
  6.527432966484E+01  6.243421604254E+01  5.941706267455E+01  5.622927032465E+01
  5.288055555216E+01  5.009443365686E+01  4.722196396591E+01  4.427279153375E+01
  4.125781681490E+01  3.818906546989E+01  3.507952051618E+01  3.272883389150E+01
  3.036892082920E+01  2.800589311540E+01  2.564591137896E+01  2.329512385184E+01
  2.095960568267E+01  1.864530014545E+01  1.635796302328E+01  1.410311133854E+01
  1.188597745510E+01  9.711469400508E+00  8.287741246753E+00  6.886243167668E+00
  5.508151663494E+00  4.154563113739E+00  2.826492574643E+00  1.524873228059E+00
  2.505564637299E-01 -9.956874287682E-01 -2.213167987271E+00 -3.401272756464E+00
 -4.559464956051E+00 -5.687280676844E+00 -6.784325645878E+00 -7.850271602972E+00
 -8.884852331709E+00 -9.887859387975E+00 -1.085913756884E+01 -1.179858016392E+01
 -1.270612403058E+01 -1.358174453329E+01 -1.442545038701E+01 -1.523727844333E+01
 -1.601728845875E+01 -1.676555788418E+01 -1.748217671675E+01 -1.816724245678E+01
 -1.882085521679E+01 -1.944311303405E+01 -2.003410744537E+01 -2.031790668550E+01
 -2.059391939056E+01 -2.086215341643E+01 -2.112261552154E+01 -2.137531127996E+01
 -2.162024500461E+01 -2.185741968135E+01 -2.208683691485E+01 -2.230849688731E+01
 -2.252239833059E+01 -2.272853851298E+01 -2.292691324108E+01 -2.311751687779E+01
 -2.330034237669E+01 -2.347538133346E+01 -2.364262405441E+01 -2.380205964197E+01
 -2.395367609695E+01 -2.409746043665E+01 -2.423339882782E+01 -2.436147673300E+01
 -2.448167906833E+01 -2.459399037071E+01 -2.469839497187E+01 -2.479487717666E+01
 -2.488342144285E+01 -2.496401256006E+01 -2.503663582518E+01 -2.510127721282E+01
 -2.515792353918E+01 -2.520656261934E+01 -2.524718341806E+01 -2.527977619606E+01
 -2.530433265382E+01 -2.532084607679E+01 -2.532931148585E+01 -2.532972579808E+01
 -2.532208800276E+01 -2.530639935778E+01 -2.528266361110E+01 -2.525088725144E+01
 -2.521107979141E+01 -2.516325408520E+01 -2.510742668174E+01 -2.504361821311E+01
 -2.497185381658E+01 -2.489216358776E+01 -2.480458306143E+01 -2.470915371600E+01
 -2.460592349724E+01 -2.449494735709E+01 -2.437628780359E+01 -2.425001545907E+01
 -2.411620962469E+01 -2.397495885119E+01 -2.382636151748E+01 -2.367052642098E+01
 -2.350757338600E+01 -2.333763389864E+01 -2.316085177984E+01 -2.297738390971E+01
 -2.278740101943E+01 -2.259108856808E+01 -2.238864772421E+01 -2.218029647247E+01
 -2.196627086694E+01 -2.174682645302E+01 -2.152223987936E+01 -2.129281072111E+01
 -2.105886353395E+01 -2.082075015652E+01 -2.057885227583E+01 -2.033358426563E+01
 -2.008539630224E+01 -1.983477775423E+01 -1.958226083244E+01 -1.932842447341E+01
 -1.907389841336E+01 -1.881936738885E+01 -1.856557537624E+01 -1.831332975201E+01
 -1.806350522231E+01 -1.781704733074E+01 -1.757497531035E+01 -1.733838399912E+01
 -1.710844449243E+01 -1.688640316324E+01 -1.667357825832E+01 -1.647135712303E+01