<?xml version="1.0" encoding="UTF-8" ?>
<psml version="1.1" energy_unit="hartree" length_unit="bohr"
 uuid="c56229f0-470a-11e8-776a-82003dfd287d"
 xmlns="http://esl.cecam.org/PSML/ns/1.1">
<provenance creator="ONCVPSP-3.3.0+psml-3.3.0-73 (fully-relativistic)"
 date="2018-04-23">
<annotation action="semilocal-pseudopotential-generation"
 action-cont="projectors-generation" />
<input-file name="oncvpsp-input">
<![CDATA[# atsym z nc nv iexc psfile
Tl 81 12 3 4 both
# n l f
1 0 2.0
2 0 2.0
2 1 6.0
3 0 2.0
3 1 6.0
3 2 10.0
4 0 2.0
4 1 6.0
4 2 10.0
5 0 2.0
5 1 6.0
4 3 14.0
5 2 10.0
6 0 2.0
6 1 1.0
# lmax
2
# l rc ep ncon nbas qcut
0 2.1 0.0 4 7 2.9
1 2.6 0.0 4 7 2.6
2 2.0 0.0 4 8 7.4
# lloc lpopt rc5 dvloc0
4 5 2.0 0.0
# l nproj debl
0 2 2.1
1 2 1.1
2 2 1.0
# icmod fcfact
3 7.0 1.3
# epsh1 epsh2 depsh
-12.0 12.0 0.02
# rlmax drl
6.0 0.01
 0
]]>
</input-file>
</provenance>
<pseudo-atom-spec atomic-label="Tl" atomic-number="81" z-pseudo="13"
 flavor="Hamann&apos;s oncvpsp" relativity="dirac" spin-dft="no"
 core-corrections="yes">
<annotation pseudo-energy="-50.6026313134" />
<exchange-correlation>
<annotation oncvpsp-xc-code="4" oncvpsp-xc-type="GGA -- Perdew-Burke-Ernzerhof" />
<libxc-info number-of-functionals="2">
<functional name="Perdew, Burke &amp; Ernzerhof (GGA)" type="exchange" id="101" />
<functional name="Perdew, Burke &amp; Ernzerhof (GGA)" type="correlation"
 id="130" />
</libxc-info>
</exchange-correlation>
<valence-configuration total-valence-charge="13">
<shell n="5" l="d" occupation="10" />
<shell n="6" l="s" occupation="2" />
<shell n="6" l="p" occupation="1" />
</valence-configuration>
</pseudo-atom-spec>
<grid npts="457">
<annotation type="sampled from oncvpsp log grid"
 recipe="r(i:1..N) = r1*exp(a*(i-1)) + r=0; resampled"
 recipe-cont="r1: scale; a: step" scale="0.617283950617E-05"
 step="0.119285708653E-01" delta="0.500000000000E-02" rmax="44.0862366899" />
<grid-data>
  0.000000000000E+00  5.034229527132E-03  1.005547840830E-02  1.508482106348E-02
  2.008502899497E-02  2.519429444232E-02  3.049231521517E-02  3.560713762894E-02
  4.108688469256E-02  4.629225516251E-02  5.153863959675E-02  5.669921561583E-02
  6.237652131689E-02  6.780859383762E-02  7.283964381425E-02  7.824397190261E-02
  8.404927342464E-02  8.921472189043E-02  9.469762530576E-02  1.005174936213E-01
  1.066950358184E-01  1.119093217371E-01  1.173784346723E-01  1.231148282578E-01
  1.291315647484E-01  1.354423447633E-01  1.420615384838E-01  1.472373699362E-01
  1.526017762239E-01  1.581616278312E-01  1.639240455596E-01  1.698964096482E-01
  1.760863692255E-01  1.825018521063E-01  1.891510749455E-01  1.960425537609E-01
  2.031851148411E-01  2.105879060489E-01  2.156723404525E-01  2.208795334404E-01
  2.262124488958E-01  2.316741222619E-01  2.372676622698E-01  2.429962527077E-01
  2.488631542330E-01  2.548717062288E-01  2.610253287040E-01  2.673275242402E-01
  2.737818799855E-01  2.803920696959E-01  2.871618558266E-01  2.940950916737E-01
  3.011957235671E-01  3.084677931169E-01  3.159154395139E-01  3.235429018855E-01
  3.313545217086E-01  3.393547452808E-01  3.475481262508E-01  3.559393282110E-01
  3.645331273513E-01  3.733344151781E-01  3.823482012982E-01  3.915796162703E-01
  4.010339145255E-01  4.107164773579E-01  4.206328159872E-01  4.256804097790E-01
  4.307885746964E-01  4.359580375927E-01  4.411895340438E-01  4.464838084524E-01
  4.518416141538E-01  4.572637135236E-01  4.627508780859E-01  4.683038886230E-01
  4.739235352864E-01  4.796106177099E-01  4.853659451224E-01  4.911903364639E-01
  4.970846205014E-01  5.030496359474E-01  5.090862315788E-01  5.151952663578E-01
  5.213776095540E-01  5.276341408687E-01  5.339657505591E-01  5.403733395658E-01
  5.468578196406E-01  5.534201134763E-01  5.600611548380E-01  5.667818886961E-01
  5.735832713604E-01  5.804662706168E-01  5.874318658642E-01  5.944810482545E-01
  6.016148208336E-01  6.088341986836E-01  6.161402090678E-01  6.235338915766E-01
  6.310162982755E-01  6.385884938548E-01  6.462515557811E-01  6.540065744505E-01
  6.618546533439E-01  6.697969091840E-01  6.778344720942E-01  6.859684857593E-01
  6.942001075884E-01  7.025305088795E-01  7.109608749861E-01  7.194924054859E-01
  7.281263143517E-01  7.368638301239E-01  7.457061960854E-01  7.546546704385E-01
  7.637105264837E-01  7.728750528015E-01  7.821495534351E-01  7.915353480764E-01
  8.010337722533E-01  8.106461775203E-01  8.203739316506E-01  8.302184188304E-01
  8.401810398563E-01  8.502632123346E-01  8.604663708826E-01  8.707919673332E-01
  8.812414709412E-01  8.918163685925E-01  9.025181650156E-01  9.133483829958E-01
  9.243085635918E-01  9.354002663549E-01  9.466250695511E-01  9.579845703857E-01
  9.694803852304E-01  9.811141498531E-01  9.928875196514E-01  1.004802169887E+00
  1.016859795926E+00  1.029062113477E+00  1.041410858839E+00  1.053907789145E+00
  1.066554682614E+00  1.079353338806E+00  1.092305578871E+00  1.105413245818E+00
  1.118678204768E+00  1.132102343225E+00  1.145687571344E+00  1.159435822200E+00
  1.173349052066E+00  1.187429240691E+00  1.201678391579E+00  1.216098532278E+00
  1.230691714666E+00  1.245460015242E+00  1.260405535424E+00  1.275530401850E+00
  1.290836766672E+00  1.306326807872E+00  1.322002729566E+00  1.337866762321E+00
  1.353921163469E+00  1.370168217431E+00  1.386610236040E+00  1.403249558872E+00
  1.420088553579E+00  1.437129616222E+00  1.454375171616E+00  1.471827673676E+00
  1.489489605760E+00  1.507363481029E+00  1.525451842801E+00  1.543757264915E+00
  1.562282352094E+00  1.581029740319E+00  1.600002097203E+00  1.619202122369E+00
  1.638632547838E+00  1.658296138412E+00  1.678195692073E+00  1.698334040378E+00
  1.718714048862E+00  1.739338617448E+00  1.760210680858E+00  1.781333209028E+00
  1.802709207536E+00  1.824341718027E+00  1.846233818643E+00  1.868388624467E+00
  1.890809287960E+00  1.913498999416E+00  1.936460987409E+00  1.959698519258E+00
  1.983214901489E+00  2.007013480307E+00  2.031097642071E+00  2.055470813775E+00
  2.080136463541E+00  2.105098101103E+00  2.130359278316E+00  2.155923589656E+00
  2.181794672732E+00  2.207976208805E+00  2.234471923311E+00  2.261285586390E+00
  2.288421013427E+00  2.315882065588E+00  2.343672650375E+00  2.371796722180E+00
  2.400258282846E+00  2.429061382240E+00  2.458210118827E+00  2.487708640253E+00
  2.517561143936E+00  2.547771877663E+00  2.578345140195E+00  2.609285281877E+00
  2.640596705260E+00  2.672283865723E+00  2.704351272112E+00  2.736803487377E+00
  2.769645129225E+00  2.802880870776E+00  2.836515441225E+00  2.870553626520E+00
  2.905000270038E+00  2.939860273279E+00  2.975138596558E+00  3.010840259717E+00
  3.046970342834E+00  3.083533986948E+00  3.120536394791E+00  3.157982831528E+00
  3.195878625507E+00  3.234229169013E+00  3.273039919041E+00  3.312316398069E+00
  3.352064194846E+00  3.392288965184E+00  3.432996432767E+00  3.474192389960E+00
  3.515882698639E+00  3.558073291023E+00  3.600770170515E+00  3.643979412562E+00
  3.687707165512E+00  3.731959651498E+00  3.776743167316E+00  3.822064085324E+00
  3.867928854348E+00  3.914344000600E+00  3.961316128607E+00  4.008851922151E+00
  4.056958145217E+00  4.105641642959E+00  4.154909342675E+00  4.204768254787E+00
  4.255225473844E+00  4.306288179530E+00  4.357963637685E+00  4.410259201337E+00
  4.463182311753E+00  4.516740499494E+00  4.570941385488E+00  4.625792682114E+00
  4.681302194299E+00  4.737477820631E+00  4.794327554478E+00  4.851859485132E+00
  4.910081798954E+00  4.969002780541E+00  5.028630813908E+00  5.088974383674E+00
  5.150042076279E+00  5.211842581194E+00  5.274384692168E+00  5.337677308474E+00
  5.401729436176E+00  5.466550189410E+00  5.532148791683E+00  5.598534577183E+00
  5.665716992109E+00  5.733705596015E+00  5.802510063167E+00  5.872140183925E+00
  5.942605866132E+00  6.013917136526E+00  6.086084142164E+00  6.159117151870E+00
  6.233026557692E+00  6.307822876385E+00  6.383516750901E+00  6.460118951912E+00
  6.537640379335E+00  6.616092063887E+00  6.695485168654E+00  6.775830990677E+00
  6.857140962566E+00  6.939426654116E+00  7.022699773966E+00  7.106972171253E+00
  7.192255837308E+00  7.278562907356E+00  7.365905662244E+00  7.454296530191E+00
  7.543748088554E+00  7.634273065616E+00  7.725884342404E+00  7.818594954512E+00
  7.912418093967E+00  8.007367111094E+00  8.103455516427E+00  8.200696982624E+00
  8.299105346416E+00  8.398694610573E+00  8.499478945900E+00  8.601472693251E+00
  8.704690365570E+00  8.809146649956E+00  8.914856409756E+00  9.021834686673E+00
  9.130096702913E+00  9.239657863348E+00  9.350533757708E+00  9.462740162801E+00
  9.576293044754E+00  9.691208561291E+00  9.807503064027E+00  9.925193100795E+00
  1.004429541800E+01  1.016482696302E+01  1.028680488658E+01  1.041024654522E+01
  1.053516950376E+01  1.066159153780E+01  1.078953063626E+01  1.091900500389E+01
  1.105003306394E+01  1.118263346071E+01  1.131682506223E+01  1.145262696298E+01
  1.159005848654E+01  1.172913918838E+01  1.186988885864E+01  1.201232752494E+01
  1.215647545524E+01  1.230235316070E+01  1.244998139863E+01  1.259938117541E+01
  1.275057374952E+01  1.290358063451E+01  1.305842360213E+01  1.321512468535E+01
  1.337370618158E+01  1.353419065576E+01  1.369660094363E+01  1.386096015495E+01
  1.402729167681E+01  1.419561917693E+01  1.436596660705E+01  1.453835820634E+01
  1.471281850481E+01  1.488937232687E+01  1.506804479479E+01  1.524886133233E+01
  1.543184766832E+01  1.561702984034E+01  1.580443419842E+01  1.599408740880E+01
  1.618601645771E+01  1.638024865520E+01  1.657681163907E+01  1.677573337873E+01
  1.697704217928E+01  1.718076668543E+01  1.738693588566E+01  1.759557911628E+01
  1.780672606568E+01  1.802040677847E+01  1.823665165981E+01  1.845549147973E+01
  1.867695737748E+01  1.890108086601E+01  1.912789383640E+01  1.935742856244E+01
  1.958971770519E+01  1.982479431765E+01  2.006269184946E+01  2.030344415166E+01
  2.054708548148E+01  2.079365050726E+01  2.104317431334E+01  2.129569240510E+01
  2.155124071396E+01  2.180985560253E+01  2.207157386976E+01  2.233643275620E+01
  2.260446994927E+01  2.287572358867E+01  2.315023227173E+01  2.342803505899E+01
  2.370917147970E+01  2.399368153745E+01  2.428160571590E+01  2.457298498449E+01
  2.486786080431E+01  2.516627513396E+01  2.546827043557E+01  2.577388968079E+01
  2.608317635696E+01  2.639617447325E+01  2.671292856693E+01  2.703348370973E+01
  2.735788551425E+01  2.768618014042E+01  2.801841430210E+01  2.835463527373E+01
  2.869489089701E+01  2.903922958778E+01  2.938770034283E+01  2.974035274694E+01
  3.009723697991E+01  3.045840382367E+01  3.082390466955E+01  3.119379152558E+01
  3.156811702389E+01  3.194693442818E+01  3.233029764132E+01  3.271826121301E+01
  3.311088034757E+01  3.350821091174E+01  3.391030944268E+01  3.431723315599E+01
  3.472903995386E+01  3.514578843331E+01  3.556753789451E+01  3.599434834924E+01
  3.642628052944E+01  3.686339589579E+01  3.730575664654E+01  3.775342572630E+01
  3.820646683501E+01  3.866494443703E+01  3.912892377028E+01  3.959847085552E+01
  4.007365250579E+01  4.055453633586E+01  4.104119077189E+01  4.153368506115E+01
  4.203208928188E+01  4.253647435326E+01  4.304691204550E+01  4.356347499005E+01
  4.408623668993E+01
</grid-data>
</grid>
<valence-charge total-charge="13" is-unscreening-charge="yes"
 rescaled-to-z-pseudo="no">
<radfunc>
<data npts="457">
  1.612222097434E-03  1.613980049458E-03  1.620020759342E-03  1.632719301936E-03
  1.655819479420E-03  1.695832525362E-03  1.762697175630E-03  1.861100070762E-03
  2.015761918524E-03  2.223412250981E-03  2.507815242118E-03  2.877431792539E-03
  3.408187335220E-03  4.060662698466E-03  4.812546007226E-03  5.802499109238E-03
  7.106671150417E-03  8.505055981023E-03  1.026541837183E-02  1.248154228210E-02
  1.527121587124E-02  1.801402341574E-02  2.131023984208E-02  2.527052016575E-02
  3.002712671068E-02  3.573795951334E-02  4.259127429286E-02  4.861430922497E-02
  5.551500211216E-02  6.341822491187E-02  7.246581508384E-02  8.281868424224E-02
  9.465914107884E-02  1.081934381735E-01  1.236545491300E-01  1.413051779760E-01
  1.614409966274E-01  1.843940980663E-01  2.014433427523E-01  2.200301566677E-01
  2.402846585809E-01  2.623466633817E-01  2.863662011040E-01  3.125040300192E-01
  3.409321365024E-01  3.718342130114E-01  4.054061040027E-01  4.418562079158E-01
  4.814058214893E-01  5.242894106242E-01  5.707547897772E-01  6.210631894538E-01
  6.754891887938E-01  7.343204875054E-01  7.978574885468E-01  8.664126600034E-01
  9.403096416192E-01  1.019882058477E+00  1.105472001466E+00  1.197428131527E+00
  1.296103362376E+00  1.401852074571E+00  1.515026812686E+00  1.635974417074E+00
  1.765031542631E+00  1.902519519242E+00  2.048738512666E+00  2.125208553163E+00
  2.203960950695E+00  2.285024221286E+00  2.368424188006E+00  2.454183709184E+00
  2.542322394513E+00  2.632856309239E+00  2.725797666661E+00  2.821154509331E+00
  2.918930379382E+00  3.019123978573E+00  3.121728818735E+00  3.226732863436E+00
  3.334118161845E+00  3.443860475892E+00  3.555928901994E+00  3.670285488807E+00
  3.786884852596E+00  3.905673792033E+00  4.026590904424E+00  4.149566205534E+00
  4.274520755434E+00  4.401366292943E+00  4.530004881510E+00  4.660328569548E+00
  4.792219068463E+00  4.925547451850E+00  5.060173879489E+00  5.195947350015E+00
  5.332705486316E+00  5.470274357848E+00  5.608468344276E+00  5.747090044936E+00
  5.885930238734E+00  6.024767899207E+00  6.163370269469E+00  6.301493001830E+00
  6.438880366781E+00  6.575265536014E+00  6.710370943960E+00  6.843908732159E+00
  6.975581280522E+00  7.105081829185E+00  7.232095194295E+00  7.356298580577E+00
  7.477362492954E+00  7.594951748898E+00  7.708726592424E+00  7.818343909854E+00
  7.923458546590E+00  8.023724723122E+00  8.118797547481E+00  8.208334620169E+00
  8.291997726430E+00  8.369454609399E+00  8.440380816395E+00  8.504461609217E+00
  8.561393927913E+00  8.610888396091E+00  8.652671354416E+00  8.686486907581E+00
  8.712098968689E+00  8.729293283727E+00  8.737879417666E+00  8.737692682650E+00
  8.728595987891E+00  8.710481590140E+00  8.683272723144E+00  8.646925084211E+00
  8.601428156024E+00  8.546806342127E+00  8.483119895122E+00  8.410465617537E+00
  8.328977316618E+00  8.238825995919E+00  8.140219768582E+00  8.033403479545E+00
  7.918658026628E+00  7.796299373502E+00  7.666677250905E+00  7.530173546112E+00
  7.387200384550E+00  7.238197911541E+00  7.083631786363E+00  6.923990405119E+00
  6.759781873200E+00  6.591530752364E+00  6.419774611517E+00  6.245060414136E+00
  6.067940778776E+00  5.888970152257E+00  5.708700937692E+00  5.527679621657E+00
  5.346442946163E+00  5.165514171866E+00  4.985399478904E+00  4.806584550948E+00
  4.629531386454E+00  4.454675378636E+00  4.282422702470E+00  4.113148043018E+00
  3.947192694640E+00  3.784863055255E+00  3.626429533898E+00  3.472125883395E+00
  3.322148963262E+00  3.176658930976E+00  3.035779852794E+00  2.899600718385E+00
  2.768176836881E+00  2.641531585653E+00  2.519658477390E+00  2.402523505887E+00
  2.290067726566E+00  2.182210024156E+00  2.078850017230E+00  1.979871047436E+00
  1.885143200314E+00  1.794526304493E+00  1.707872856856E+00  1.625030822788E+00
  1.545846263058E+00  1.470165741963E+00  1.397838475331E+00  1.328718181682E+00
  1.262664605446E+00  1.199544687654E+00  1.139233366999E+00  1.081614002718E+00
  1.026578420254E+00  9.740265911109E-01  9.238656203274E-01  8.760071661668E-01
  8.303643342432E-01  7.868517715554E-01  7.453857296764E-01  7.058842812003E-01
  6.682676004882E-01  6.324581167358E-01  5.983805840299E-01  5.659621601020E-01
  5.351324437033E-01  5.058234868816E-01  4.779697817154E-01  4.515082239200E-01
  4.263780560854E-01  4.025207937931E-01  3.798801382884E-01  3.584018797450E-01
  3.380337954104E-01  3.187255470603E-01  3.004285821901E-01  2.830960432304E-01
  2.666827067396E-01  2.511450116186E-01  2.364411396150E-01  2.225309897935E-01
  2.093761057540E-01  1.969396359545E-01  1.851862815629E-01  1.740822461632E-01
  1.635951855397E-01  1.536941579054E-01  1.443495747583E-01  1.355331525107E-01
  1.272178650179E-01  1.193778971115E-01  1.119885991972E-01  1.050264430212E-01
  9.846897861299E-02  9.229479245424E-02  8.648346689195E-02  8.101554080372E-02
  7.587247151469E-02  7.103659795765E-02  6.649110506100E-02  6.221998934355E-02
  5.820802569083E-02  5.444073528417E-02  5.090435465078E-02  4.758580580175E-02
  4.447266742325E-02  4.155314708593E-02  3.881605443734E-02  3.625077534268E-02
  3.384724693969E-02  3.159593357490E-02  2.948780358930E-02  2.751430692326E-02
  2.566735351184E-02  2.393929244336E-02  2.232289185513E-02  2.081131954369E-02
  1.939812426561E-02  1.807721770888E-02  1.684285711505E-02  1.568962853388E-02
  1.461243069365E-02  1.360645947088E-02  1.266719294463E-02  1.179037702096E-02
  1.097201161412E-02  1.020833737143E-02  9.495822929247E-03  8.831152688010E-03
  8.211215094268E-03  7.633091418271E-03  7.094045015051E-03  6.591511057856E-03
  6.123086732180E-03  5.686521878807E-03  5.279710074177E-03  4.900680136270E-03
  4.547588044101E-03  4.218709258753E-03  3.912431433767E-03  3.627247502586E-03
  3.361749130588E-03  3.114620519202E-03  2.884632549463E-03  2.670637252321E-03
  2.471562593021E-03  2.286407556813E-03  2.114237523318E-03  1.954179916961E-03
  1.805420120929E-03  1.667197642319E-03  1.538802516264E-03  1.419571937056E-03
  1.308887104544E-03  1.206170274334E-03  1.110882000637E-03  1.022518560956E-03
  9.406095521299E-04  8.647156476522E-04  7.944265065648E-04  7.293588246244E-04
  6.691545188578E-04  6.134790370337E-04  5.620197839924E-04  5.144846571897E-04
  4.706006842145E-04  4.301127554381E-04  3.927824453352E-04  3.583869163940E-04
  3.267178998826E-04  2.975807480873E-04  2.707935529566E-04  2.461863264006E-04
  2.236002377807E-04  2.028869044080E-04  1.839077311276E-04  1.665332953173E-04
  1.506427738642E-04  1.361234089097E-04  1.228700093672E-04  1.107844854244E-04
  9.977541343588E-05  8.975762880538E-05  8.065184463595E-05  7.238429410129E-05
  6.488639465965E-05  5.809443239091E-05  5.194926489018E-05  4.639604129558E-05
  4.138393816437E-05  3.686591003950E-05  3.279845366721E-05  2.914138493685E-05
  2.585762771414E-05  2.291301383094E-05  2.027609357660E-05  1.791795610901E-05
  1.581205926816E-05  1.393406833054E-05  1.226170329123E-05  1.077459430112E-05
  9.454144920543E-06  8.283402878609E-06  7.246938050105E-06  6.330727379183E-06
  5.522046492931E-06  4.809367757925E-06  4.182264540217E-06  3.631321434266E-06
  3.148050229645E-06  2.724811386439E-06  2.354740791490E-06  2.031681568428E-06
  1.750120715049E-06  1.505130342305E-06  1.292313290207E-06  1.107752897427E-06
  9.479667034247E-07  8.098638646455E-07  6.907060697386E-07  5.880717428388E-07
  4.998233287564E-07  4.240774593695E-07  3.591778065734E-07  3.036704337463E-07
  2.562814647721E-07  2.158968971391E-07  1.815443934311E-07  1.523768935674E-07
  1.276578983423E-07  1.067482831038E-07  8.909450870452E-08  7.421810511101E-08
  6.170631118843E-08  5.120376215598E-08  4.240512396755E-08  3.504858138627E-08
  2.891009375122E-08  2.379833935489E-08  1.955027594029E-08  1.602725107253E-08
  1.311160203111E-08  1.070369040213E-08  8.719321722967E-09  7.087505349301E-09
  5.748514182386E-09  4.652208021697E-09  3.756588106799E-09  3.026553895039E-09
  2.432836304706E-09  1.951084547043E-09  1.561086304102E-09  1.246103379663E-09
  9.923070954058E-10  7.882996262192E-10  6.247091902244E-10  4.938485453022E-10
  3.894276102800E-10  3.063122405005E-10  2.403222583825E-10  1.880627831985E-10
  1.467837331869E-10  1.142630989909E-10  8.871022112052E-11  6.868585568317E-11
  5.303629119663E-11  4.083919327924E-11  3.135921102284E-11  2.401168579408E-11
  1.833306629088E-11  1.395685847694E-11  1.059413050776E-11  8.017755374644E-12
  6.049711655267E-12  4.550878934070E-12  3.412862188469E-12  2.551461395947E-12
  1.901471128829E-12  1.412551991232E-12  1.045963167414E-12  7.719846035360E-13
  5.678897340542E-13  4.163563013255E-13  3.042246511745E-13  2.215307228273E-13
  1.607554743448E-13  1.162442649615E-13  8.375924277503E-14  6.013546105209E-14
  4.301760860058E-14  3.065916932901E-14  2.176975560759E-14  1.539948086324E-14
  1.085170627533E-14  7.617443167012E-15  5.326221571310E-15  3.709431603454E-15
  2.573076500790E-15  1.777599901180E-15  1.223009548989E-15  8.379506258358E-16
  5.717125202426E-16  3.884054253604E-16  2.627353132454E-16  1.769514194436E-16
  1.186502032502E-16  7.915026589655E-17  5.259861386292E-17  3.479353218065E-17
  2.290854254874E-17  0.000000000000E+00  0.000000000000E+00  0.000000000000E+00
  0.000000000000E+00
</data>
</radfunc>
</valence-charge>
<pseudocore-charge matching-radius="1.10541324582"
 number-of-continuous-derivatives="4">
<annotation model-charge-form="Teter function with specified parameters" />
<radfunc>
<data npts="290">
  5.391502947001E+01  5.391293898750E+01  5.390668953980E+01  5.389626233705E+01
  5.388176291546E+01  5.386269409619E+01  5.383838515341E+01  5.381054106045E+01
  5.377594786176E+01  5.373853199536E+01  5.369633988101E+01  5.365045823662E+01
  5.359497740402E+01  5.353699798972E+01  5.347904184029E+01  5.341223956033E+01
  5.333525387101E+01  5.326221917665E+01  5.318004378686E+01  5.308759968709E+01
  5.298362396231E+01  5.289119666689E+01  5.278968901779E+01  5.267822811659E+01
  5.255586118122E+01  5.242154908997E+01  5.227415959072E+01  5.215429797816E+01
  5.202582993881E+01  5.188816032257E+01  5.174065633179E+01  5.158264568965E+01
  5.141341481130E+01  5.123220699711E+01  5.103822067108E+01  5.083060769233E+01
  5.060847177212E+01  5.037086703496E+01  5.020338001045E+01  5.002826794996E+01
  4.984521241485E+01  4.965388454710E+01  4.945394503268E+01  4.924504410411E+01
  4.902682158748E+01  4.879890699938E+01  4.856091969983E+01  4.831246910776E+01
  4.805315498596E+01  4.778256780325E+01  4.750028918172E+01  4.720589243803E+01
  4.689894322770E+01  4.657900030238E+01  4.624561639044E+01  4.589833921179E+01
  4.553671263836E+01  4.516027801230E+01  4.476857563422E+01  4.436114643430E+01
  4.393753383942E+01  4.349728584953E+01  4.303995733673E+01  4.256511258036E+01
  4.207232805105E+01  4.156119545636E+01  4.103132505978E+01  4.075924734774E+01
  4.048234928387E+01  4.020058902260E+01  3.991392660677E+01  3.962232410601E+01
  3.932574575981E+01  3.902415812555E+01  3.871753023129E+01  3.840583373344E+01
  3.808904307916E+01  3.776713567358E+01  3.744009205163E+01  3.710789605458E+01
  3.677053501097E+01  3.642799992202E+01  3.608028565115E+01  3.572739111767E+01
  3.536931949423E+01  3.500607840787E+01  3.463768014454E+01  3.426414185647E+01
  3.388548577243E+01  3.350173941021E+01  3.311293579113E+01  3.271911365590E+01
  3.232031768164E+01  3.191659869918E+01  3.150801391032E+01  3.109462710434E+01
  3.067650887295E+01  3.025373682318E+01  2.982639578722E+01  2.939457802843E+01
  2.895838344273E+01  2.851791975419E+01  2.807330270402E+01  2.762465623178E+01
  2.717211264771E+01  2.671581279496E+01  2.625590620052E+01  2.579255121351E+01
  2.532591512949E+01  2.485617429933E+01  2.438351422127E+01  2.390812961456E+01
  2.343022447310E+01  2.295001209761E+01  2.246771510456E+01  2.198356541021E+01
  2.149780418814E+01  2.101068179845E+01  2.052245768700E+01  2.003340025289E+01
  1.954378668252E+01  1.905390274858E+01  1.856404257218E+01  1.807450834665E+01
  1.758561002144E+01  1.709766494460E+01  1.661099746250E+01  1.612593847563E+01
  1.564282494920E+01  1.516199937767E+01  1.468380920250E+01  1.420860618230E+01
  1.373674571529E+01  1.326858611372E+01  1.280448783046E+01  1.234481263836E+01
  1.188992276277E+01  1.144017996875E+01  1.099594460406E+01  1.055757460004E+01
  1.012542443251E+01  9.699844045446E+00  9.281177740556E+00  8.869763036425E+00
  8.465929501302E+00  8.069997564159E+00  7.682277309126E+00  7.303067258936E+00
  6.932653153499E+00  6.571306730242E+00  6.219284513334E+00  5.876826619383E+00
  5.544155587628E+00  5.221475243082E+00  4.908969601412E+00  4.606801824704E+00
  4.315113237461E+00  4.034022412441E+00  3.763624335988E+00  3.503989662574E+00
  3.255164068188E+00  3.017167712014E+00  2.789994815583E+00  2.573613368125E+00
  2.367964966352E+00  2.172964796177E+00  1.988501763108E+00  1.814438777035E+00
  1.650613196092E+00  1.496837432956E+00  1.352899725633E+00  1.218565073188E+00
  1.093576335302E+00  9.776554927138E-01  8.705050638244E-01  7.718096707437E-01
  6.812377461285E-01  5.984433701140E-01  5.230682246453E-01  4.547436505255E-01
  3.930927905907E-01  3.377328006123E-01  2.882771078680E-01  2.443376958500E-01
  2.055273923347E-01  1.714621370630E-01  1.417632046179E-01  1.160593577702E-01
  9.398890662802E-02  7.520164940237E-02  5.936067150876E-02  4.614398108190E-02
  3.524596078789E-02  2.637861807627E-02  1.927261870420E-02  1.367809145982E-02
  9.365195471609E-03  6.124445261508E-03  3.766792715359E-03  2.123469327476E-03
  1.045596336303E-03  4.035746070341E-04  8.627022774537E-05  1.565689721415E-08
  6.744977903445E-05  2.262232809745E-04  4.275982476568E-04  6.349727000388E-04
  8.223618764036E-04  9.728683313704E-04  1.077172354699E-03  1.132072781917E-03
  1.139105997229E-03  1.103267863551E-03  1.031859533938E-03  9.334737135208E-04
  8.171330906192E-04  6.915875045166E-04  5.647711501784E-04  4.434159345793E-04
  3.328121980464E-04  2.367035954483E-04  1.572991802960E-04  9.538280963877E-05
  5.049801473322E-05  2.118554481135E-05  5.250922098701E-06  4.052442766460E-08
  2.706860094894E-06  1.044668626280E-05  2.069926609958E-05  3.129613939090E-05
  4.055804666044E-05  4.733883483100E-05  5.102002398103E-05  5.146299258572E-05
  4.892824513798E-05  4.397281893407E-05  3.733749158521E-05  2.983506850125E-05
  2.224973865621E-05  1.525543871105E-05  9.358572969493E-06  4.867556767466E-06
  1.888762518952E-06  3.458254941645E-07  1.715459083249E-08  5.850805639019E-07
  1.689473531286E-06  2.978897700624E-06  4.153376573909E-06  4.994463206200E-06
  5.380325602865E-06  5.285702499516E-06  4.768584584057E-06  3.947080088849E-06
  2.970938363526E-06  1.992521092989E-06  1.141618340428E-06  5.074972425372E-07
  1.301253792177E-07  8.710287821298E-10  0.000000000000E+00  0.000000000000E+00
  0.000000000000E+00  0.000000000000E+00  0.000000000000E+00  0.000000000000E+00
  0.000000000000E+00  0.000000000000E+00  0.000000000000E+00  0.000000000000E+00
  0.000000000000E+00  0.000000000000E+00  0.000000000000E+00  0.000000000000E+00
  0.000000000000E+00  0.000000000000E+00  0.000000000000E+00  0.000000000000E+00
  0.000000000000E+00  0.000000000000E+00  0.000000000000E+00  0.000000000000E+00
  0.000000000000E+00  0.000000000000E+00  0.000000000000E+00  0.000000000000E+00
  0.000000000000E+00  0.000000000000E+00
</data>
</radfunc>
</pseudocore-charge>
<semilocal-potentials set="scalar_relativistic">
<slps n="6" l="s" rc="2.10509810110">
<radfunc>
<data npts="290">
  4.570192739098E+01  4.567156968860E+01  4.558098669288E+01  4.543041682862E+01
  4.522221577078E+01  4.495045708817E+01  4.460736196540E+01  4.421890391410E+01
  4.374290152684E+01  4.323613153983E+01  4.267448860015E+01  4.207523022441E+01
  4.136611809991E+01  4.064262898143E+01  3.993673619567E+01  3.914377492502E+01
  3.825629638113E+01  3.743935168984E+01  3.654794953603E+01  3.557867952642E+01
  3.452872193976E+01  3.362924976207E+01  3.267618059080E+01  3.166933903110E+01
  3.060905649814E+01  2.949622543064E+01  2.833234675333E+01  2.742720445015E+01
  2.649569544223E+01  2.553918950253E+01  2.455927302446E+01  2.355774620858E+01
  2.253661695378E+01  2.149809136448E+01  2.044456087709E+01  1.937858610675E+01
  1.830287761742E+01  1.722027391844E+01  1.649615684446E+01  1.577117316459E+01
  1.504622648545E+01  1.432222837800E+01  1.360009462392E+01  1.288074145118E+01
  1.216508179592E+01  1.145402162719E+01  1.074845636996E+01  1.004926746014E+01
  9.357319062861E+00  8.673454982584E+00  7.998495790168E+00  7.333236188397E+00
  6.678442633366E+00  6.034851224826E+00  5.403165874168E+00  4.784056754100E+00
  4.178159029514E+00  3.586071864468E+00  3.008357695740E+00  2.445541759096E+00
  1.898111850272E+00  1.366518298752E+00  8.511741286984E-01  3.524553779517E-01
 -1.292984572219E-01 -5.937838869389E-01 -1.040732840130E+00 -1.257556902712E+00
 -1.469912065195E+00 -1.677774518317E+00 -1.881122561811E+00 -2.079936591534E+00
 -2.274199088895E+00 -2.463894612959E+00 -2.649009795606E+00 -2.829533340150E+00
 -3.005456023801E+00 -3.176770704369E+00 -3.343472331604E+00 -3.505557963576E+00
 -3.663026788472E+00 -3.815880152221E+00 -3.964121592308E+00 -4.107756878163E+00
 -4.246794058484E+00 -4.381243515834E+00 -4.511118028846E+00 -4.636432842330E+00
 -4.757205745556E+00 -4.873457158958E+00 -4.985210229440E+00 -5.092490934448E+00
 -5.195328194888E+00 -5.293753996920E+00 -5.387803522578E+00 -5.477515289080E+00
 -5.562931296595E+00 -5.644097184133E+00 -5.721062393071E+00 -5.793880337738E+00
 -5.862608582282E+00 -5.927309022906E+00 -5.988048074346E+00 -6.044896859307E+00
 -6.097931399284E+00 -6.147232805038E+00 -6.192887464676E+00 -6.234987227065E+00
 -6.273629577990E+00 -6.308917806207E+00 -6.340961156206E+00 -6.369874964223E+00
 -6.395780773680E+00 -6.418806426036E+00 -6.439086122554E+00 -6.456760452441E+00
 -6.471976382370E+00 -6.484887202343E+00 -6.495652422570E+00 -6.504437616059E+00
 -6.511414201491E+00 -6.516759161108E+00 -6.520654688452E+00 -6.523287761130E+00
 -6.524849634163E+00 -6.525535250081E+00 -6.525542562601E+00 -6.525071771639E+00
 -6.524324468432E+00 -6.523502690745E+00 -6.522807889520E+00 -6.522439809832E+00
 -6.522595290640E+00 -6.523466989603E+00 -6.525242041012E+00 -6.528100656793E+00
 -6.532214682348E+00 -6.537746120806E+00 -6.544845640966E+00 -6.553651085698E+00
 -6.564285998870E+00 -6.576858189913E+00 -6.591458355800E+00 -6.608158780556E+00
 -6.627012132314E+00 -6.648050377452E+00 -6.671283830388E+00 -6.696700356233E+00
 -6.724264741772E+00 -6.753918248060E+00 -6.785578355559E+00 -6.819138710019E+00
 -6.854469274591E+00 -6.891416690791E+00 -6.929804848190E+00 -6.969435660191E+00