Tl    ONCVPSP-3.3.0  r_core=   1.40325   1.50736   1.40325
81.0000     21.0000      180507    zatom,zion,pspd
8      11   2     4   600     0    pspcod,pspxc,lmax,lloc,mmax,r2well
5.99000000  9.00000000  0.00000000    rchrg fchrg qchrg
2     4     4     0    nproj
3     1           extension_switch
4     4     0    nprojso
0                         1.9537130798414D+00  1.6513385691130D+01
1  0.0000000000000D+00  1.9915382121205D-09 -6.0349114594516D-10
2  1.0000000000000D-02 -2.8708016593916D-02  8.0075516853839D-02
3  2.0000000000000D-02 -5.7170031219683D-02  1.5994683571341D-01
4  3.0000000000000D-02 -8.5142340978617D-02  2.3941067678822D-01
5  4.0000000000000D-02 -1.1238580847522D-01  3.1826558681872D-01
6  5.0000000000000D-02 -1.3866806349687D-01  3.9631282780746D-01
7  6.0000000000000D-02 -1.6376560884822D-01  4.7335723674604D-01
8  7.0000000000000D-02 -1.8746580076980D-01  5.4920804739128D-01
9  8.0000000000000D-02 -2.0956867636197D-01  6.2367966574696D-01
10  9.0000000000000D-02 -2.2988860286685D-01  6.9659239164419D-01
11  1.0000000000000D-01 -2.4825572649535D-01  7.6777307967011D-01
12  1.1000000000000D-01 -2.6451720168021D-01  8.3705573365961D-01
13  1.2000000000000D-01 -2.7853818513931D-01  9.0428203002063D-01
14  1.3000000000000D-01 -2.9020258289349D-01  9.6930176629516D-01
15  1.4000000000000D-01 -2.9941354233909D-01  1.0319732325459D+00
16  1.5000000000000D-01 -3.0609368556854D-01  1.0921635043835D+00
17  1.6000000000000D-01 -3.1018508429509D-01  1.1497486576915D+00
18  1.7000000000000D-01 -3.1164898090727D-01  1.2046139063464D+00
19  1.8000000000000D-01 -3.1046526428678D-01  1.2566536654437D+00
20  1.9000000000000D-01 -3.0663171300451D-01  1.3057715437146D+00
21  2.0000000000000D-01 -3.0016302230004D-01  1.3518802699217D+00
22  2.1000000000000D-01 -2.9108963478617D-01  1.3949015590507D+00
23  2.2000000000000D-01 -2.7945639804434D-01  1.4347659250317D+00
24  2.3000000000000D-01 -2.6532107513516D-01  1.4714124475360D+00
25  2.4000000000000D-01 -2.4875273648891D-01  1.5047885010606D+00
26  2.5000000000000D-01 -2.2983006362394D-01  1.5348494550439D+00
27  2.6000000000000D-01 -2.0863959662617D-01  1.5615583541260D+00
28  2.7000000000000D-01 -1.8527395828340D-01  1.5848855878745D+00
29  2.8000000000000D-01 -1.5983008818187D-01  1.6048085593332D+00
30  2.9000000000000D-01 -1.3240751992481D-01  1.6213113616144D+00
31  3.0000000000000D-01 -1.0310673392198D-01  1.6343844714470D+00
32  3.1000000000000D-01 -7.2027616926771D-02  1.6440244681121D+00
33  3.2000000000000D-01 -3.9268057679122D-02  1.6502337855498D+00
34  3.3000000000000D-01 -4.9227056687151D-03  1.6530205046207D+00
35  3.4000000000000D-01  3.0918082804262D-02  1.6523981915543D+00
36  3.5000000000000D-01  6.8169090384828D-02  1.6483857875370D+00
37  3.6000000000000D-01  1.0675085904887D-01  1.6410075531907D+00
38  3.7000000000000D-01  1.4659007198342D-01  1.6302930704026D+00
39  3.8000000000000D-01  1.8761968816943D-01  1.6162773025875D+00
40  3.9000000000000D-01  2.2977882544275D-01  1.5990007130397D+00
41  4.0000000000000D-01  2.7301239252902D-01  1.5785094395688D+00
42  4.1000000000000D-01  3.1727047534652D-01  1.5548555221465D+00
43  4.2000000000000D-01  3.6250748766654D-01  1.5280971788431D+00
44  4.3000000000000D-01  4.0868110093724D-01  1.4982991239272D+00
45  4.4000000000000D-01  4.5575097263045D-01  1.4655329206659D+00
46  4.5000000000000D-01  5.0367729678565D-01  1.4298773601251D+00
47  4.6000000000000D-01  5.5241920442127D-01  1.3914188561464D+00
48  4.7000000000000D-01  6.0193304509042D-01  1.3502518456990D+00
49  4.8000000000000D-01  6.5217058400433D-01  1.3064791829910D+00
50  4.9000000000000D-01  7.0307715177176D-01  1.2602125150901D+00
51  5.0000000000000D-01  7.5458978584982D-01  1.2115726263709D+00
52  5.1000000000000D-01  8.0663540422302D-01  1.1606897388850D+00
53  5.2000000000000D-01  8.5912905258655D-01  1.1077037557525D+00
54  5.3000000000000D-01  9.1197226637508D-01  1.0527644349083D+00
55  5.4000000000000D-01  9.6505158833516D-01  9.9603148100143D-01
56  5.5000000000000D-01  1.0182372809792D+00  9.3767454395223D-01
57  5.6000000000000D-01  1.0713822711834D+00  8.7787311360214D-01
58  5.7000000000000D-01  1.1243213614292D+00  8.1681630104693D-01
59  5.8000000000000D-01  1.1768707387416D+00  7.5470249861437D-01
60  5.9000000000000D-01  1.2288278083270D+00  6.9173891200400D-01
61  6.0000000000000D-01  1.2799713742521D+00  6.2814095985445D-01
62  6.1000000000000D-01  1.3300621843677D+00  5.6413153788843D-01
63  6.2000000000000D-01  1.3788438510570D+00  4.9994014681613D-01
64  6.3000000000000D-01  1.4260441534318D+00  4.3580188529538D-01
65  6.4000000000000D-01  1.4713767203514D+00  3.7195631143832D-01
66  6.5000000000000D-01  1.5145430871978D+00  3.0864617858803D-01
67  6.6000000000000D-01  1.5552351128435D+00  2.4611605331092D-01
68  6.7000000000000D-01  1.5931377367473D+00  1.8461082575101D-01
69  6.8000000000000D-01  1.6279320497422D+00  1.2437412461940D-01
70  6.9000000000000D-01  1.6592986459459D+00  6.5646651111939D-02
71  7.0000000000000D-01  1.6869212174425D+00  8.6644479233543D-03
72  7.1000000000000D-01  1.7104903479965D+00 -4.6342878759979D-02
73  7.2000000000000D-01  1.7297074572573D+00 -9.9153964916182D-02
74  7.3000000000000D-01  1.7442888427123D+00 -1.4955750135642D-01
75  7.4000000000000D-01  1.7539697631617D+00 -1.9735403177393D-01
76  7.5000000000000D-01  1.7585085047889D+00 -2.4235771383125D-01
77  7.6000000000000D-01  1.7576903690469D+00 -2.8439802054037D-01
78  7.7000000000000D-01  1.7513315206276D+00 -3.2332135911129D-01
79  7.8000000000000D-01  1.7392826337652D+00 -3.5899258469624D-01
80  7.9000000000000D-01  1.7214322760641D+00 -3.9129638704782D-01
81  8.0000000000000D-01  1.6977099709522D+00 -4.2013852903942D-01
82  8.1000000000000D-01  1.6680888827327D+00 -4.4544691726060D-01
83  8.2000000000000D-01  1.6325880720190D+00 -4.6717248648861D-01
84  8.3000000000000D-01  1.5912742740509D+00 -4.8528988173501D-01
85  8.4000000000000D-01  1.5442631579560D+00 -4.9979792375177D-01
86  8.5000000000000D-01  1.4917200313653D+00 -5.1071984633039D-01
87  8.6000000000000D-01  1.4338599618444D+00 -5.1810329640871D-01
88  8.7000000000000D-01  1.3709472942548D+00 -5.2202009087967D-01
89  8.8000000000000D-01  1.3032945513246D+00 -5.2256572703602D-01
90  8.9000000000000D-01  1.2312607132524D+00 -5.1985864674230D-01
91  9.0000000000000D-01  1.1552488809799D+00 -5.1403925765734D-01
92  9.1000000000000D-01  1.0757033367131D+00 -5.0526871808909D-01
93  9.2000000000000D-01  9.9310602421381D-01 -4.9372749530233D-01
94  9.3000000000000D-01  9.0797248018386D-01 -4.7961371026880D-01
95  9.4000000000000D-01  8.2084725658779D-01 -4.6314128490137D-01
96  9.5000000000000D-01  7.3229888186923D-01 -4.4453791070021D-01
97  9.6000000000000D-01  6.4291441657663D-01 -4.2404286041449D-01
98  9.7000000000000D-01  5.5329366580277D-01 -4.0190466674370D-01
99  9.8000000000000D-01  4.6404311693495D-01 -3.7837869422623D-01
100  9.9000000000000D-01  3.7576967644196D-01 -3.5372463226621D-01
101  1.0000000000000D+00  2.8907428353884D-01 -3.2820393864770D-01
102  1.0100000000000D+00  2.0454548181495D-01 -3.0207726396179D-01
103  1.0200000000000D+00  1.2275303183040D-01 -2.7560188797105D-01
104  1.0300000000000D+00  4.4241648487692D-02 -2.4902919913116D-01
105  1.0400000000000D+00 -3.0475053406869D-02 -2.2260224825595D-01
106  1.0500000000000D+00 -1.0092032375830D-01 -1.9655340657854D-01
107  1.0600000000000D+00 -1.6665967306286D-01 -1.7110215739905D-01
108  1.0700000000000D+00 -2.2730582476342D-01 -1.4645304894080D-01
109  1.0800000000000D+00 -2.8252315469807D-01 -1.2279383401502D-01
110  1.0900000000000D+00 -3.3203155434955D-01 -1.0029381983628D-01
111  1.1000000000000D+00 -3.7560966261682D-01 -7.9102448382249D-02
112  1.1100000000000D+00 -4.1309741782722D-01 -5.9348125126450D-02
113  1.1200000000000D+00 -4.4439789210084D-01 -4.1137310179579D-02
114  1.1300000000000D+00 -4.6947837925298D-01 -2.4553882577928D-02
115  1.1400000000000D+00 -4.8837071845721D-01 -9.6587844551520D-03
116  1.1500000000000D+00 -5.0117084513993D-01  3.5100515137333D-03
117  1.1600000000000D+00 -5.0803757268952D-01  1.4937492383619D-02
118  1.1700000000000D+00 -5.0919061947860D-01  2.4630717847402D-02
119  1.1800000000000D+00 -5.0490790729408D-01  3.2618464877320D-02
120  1.1900000000000D+00 -4.9552216465896D-01  3.8950015856617D-02
121  1.2000000000000D+00 -4.8141688318253D-01  4.3693947224814D-02
122  1.2100000000000D+00 -4.6302168253706D-01  4.6936658338339D-02
123  1.2200000000000D+00 -4.4080714814183D-01  4.8780703295756D-02
124  1.2300000000000D+00 -4.1527921388700D-01  4.9342951438387D-02
125  1.2400000000000D+00 -3.8697317129209D-01  4.8752605491491D-02
126  1.2500000000000D+00 -3.5644739010957D-01  4.7149107616325D-02
127  1.2600000000000D+00 -3.2427684017163D-01  4.4679965359420D-02
128  1.2700000000000D+00 -2.9104652309554D-01  4.1498535556089D-02
129  1.2800000000000D+00 -2.5734488594930D-01  3.7761793443296D-02
130  1.2900000000000D+00 -2.2375713687248D-01  3.3628065812747D-02
131  1.3000000000000D+00 -1.9085900530658D-01  2.9254904141567D-02
132  1.3100000000000D+00 -1.5921242763142D-01  2.4797540691416D-02
133  1.3200000000000D+00 -1.2935149786330D-01  2.0404416591135D-02
134  1.3300000000000D+00 -1.0176831330130D-01  1.6212641397938D-02
135  1.3400000000000D+00 -7.6898129142547D-02  1.2343181748104D-02
136  1.3500000000000D+00 -5.5113507246948D-02  8.8987852104050D-03
137  1.3600000000000D+00 -3.6732193408365D-02  5.9645946290544D-03
138  1.3700000000000D+00 -2.1959092752687D-02  3.5976912746352D-03
139  1.3800000000000D+00 -1.0909529585221D-02  1.8295241981974D-03
140  1.3900000000000D+00 -4.0396651973875D-03  7.4468976361138D-04
141  1.4000000000000D+00 -9.5612459085659D-04  2.6197931628949D-04
142  1.4100000000000D+00 -5.0520480700006D-05  7.3076395608319D-05
143  1.4200000000000D+00  7.1228469281516D-07  3.2708000150445D-07
144  1.4300000000000D+00 -2.8044930664943D-05 -5.6053959636004D-06
145  1.4400000000000D+00  1.3165716475038D-06  1.2575268000342D-06
146  1.4500000000000D+00  2.2478214644192D-06  1.2939907515987D-06
147  1.4600000000000D+00  1.2986952486427D-06 -4.6959294540658D-07
148  1.4700000000000D+00  4.4256643635251D-07 -1.6002682430853D-07
149  1.4800000000000D+00  0.0000000000000D+00  0.0000000000000D+00
150  1.4900000000000D+00  0.0000000000000D+00  0.0000000000000D+00
151  1.5000000000000D+00  0.0000000000000D+00  0.0000000000000D+00
152  1.5100000000000D+00  0.0000000000000D+00  0.0000000000000D+00
153  1.5200000000000D+00  0.0000000000000D+00  0.0000000000000D+00
154  1.5300000000000D+00  0.0000000000000D+00  0.0000000000000D+00
155  1.5400000000000D+00  0.0000000000000D+00  0.0000000000000D+00
156  1.5500000000000D+00  0.0000000000000D+00  0.0000000000000D+00
157  1.5600000000000D+00  0.0000000000000D+00  0.0000000000000D+00
158  1.5700000000000D+00  0.0000000000000D+00  0.0000000000000D+00
159  1.5800000000000D+00  0.0000000000000D+00  0.0000000000000D+00
160  1.5900000000000D+00  0.0000000000000D+00  0.0000000000000D+00
161  1.6000000000000D+00  0.0000000000000D+00  0.0000000000000D+00
162  1.6100000000000D+00  0.0000000000000D+00  0.0000000000000D+00
163  1.6200000000000D+00  0.0000000000000D+00  0.0000000000000D+00
164  1.6300000000000D+00  0.0000000000000D+00  0.0000000000000D+00
165  1.6400000000000D+00  0.0000000000000D+00  0.0000000000000D+00
166  1.6500000000000D+00  0.0000000000000D+00  0.0000000000000D+00
167  1.6600000000000D+00  0.0000000000000D+00  0.0000000000000D+00
168  1.6700000000000D+00  0.0000000000000D+00  0.0000000000000D+00
169  1.6800000000000D+00  0.0000000000000D+00  0.0000000000000D+00
170  1.6900000000000D+00  0.0000000000000D+00  0.0000000000000D+00
171  1.7000000000000D+00  0.0000000000000D+00  0.0000000000000D+00
172  1.7100000000000D+00  0.0000000000000D+00  0.0000000000000D+00
173  1.7200000000000D+00  0.0000000000000D+00  0.0000000000000D+00
174  1.7300000000000D+00  0.0000000000000D+00  0.0000000000000D+00
175  1.7400000000000D+00  0.0000000000000D+00  0.0000000000000D+00
176  1.7500000000000D+00  0.0000000000000D+00  0.0000000000000D+00
177  1.7600000000000D+00  0.0000000000000D+00  0.0000000000000D+00
178  1.7700000000000D+00  0.0000000000000D+00  0.0000000000000D+00
179  1.7800000000000D+00  0.0000000000000D+00  0.0000000000000D+00
180  1.7900000000000D+00  0.0000000000000D+00  0.0000000000000D+00
181  1.8000000000000D+00  0.0000000000000D+00  0.0000000000000D+00
182  1.8100000000000D+00  0.0000000000000D+00  0.0000000000000D+00
183  1.8200000000000D+00  0.0000000000000D+00  0.0000000000000D+00
184  1.8300000000000D+00  0.0000000000000D+00  0.0000000000000D+00
185  1.8400000000000D+00  0.0000000000000D+00  0.0000000000000D+00
186  1.8500000000000D+00  0.0000000000000D+00  0.0000000000000D+00
187  1.8600000000000D+00  0.0000000000000D+00  0.0000000000000D+00
188  1.8700000000000D+00  0.0000000000000D+00  0.0000000000000D+00
189  1.8800000000000D+00  0.0000000000000D+00  0.0000000000000D+00
190  1.8900000000000D+00  0.0000000000000D+00  0.0000000000000D+00
191  1.9000000000000D+00  0.0000000000000D+00  0.0000000000000D+00
192  1.9100000000000D+00  0.0000000000000D+00  0.0000000000000D+00
193  1.9200000000000D+00  0.0000000000000D+00  0.0000000000000D+00
194  1.9300000000000D+00  0.0000000000000D+00  0.0000000000000D+00
195  1.9400000000000D+00  0.0000000000000D+00  0.0000000000000D+00
196  1.9500000000000D+00  0.0000000000000D+00  0.0000000000000D+00
197  1.9600000000000D+00  0.0000000000000D+00  0.0000000000000D+00
198  1.9700000000000D+00  0.0000000000000D+00  0.0000000000000D+00
199  1.9800000000000D+00  0.0000000000000D+00  0.0000000000000D+00
200  1.9900000000000D+00  0.0000000000000D+00  0.0000000000000D+00
201  2.0000000000000D+00  0.0000000000000D+00  0.0000000000000D+00
202  2.0100000000000D+00  0.0000000000000D+00  0.0000000000000D+00
203  2.0200000000000D+00  0.0000000000000D+00  0.0000000000000D+00
204  2.0300000000000D+00  0.0000000000000D+00  0.0000000000000D+00
205  2.0400000000000D+00  0.0000000000000D+00  0.0000000000000D+00
206  2.0500000000000D+00  0.0000000000000D+00  0.0000000000000D+00
207  2.0600000000000D+00  0.0000000000000D+00  0.0000000000000D+00
208  2.0700000000000D+00  0.0000000000000D+00  0.0000000000000D+00
209  2.0800000000000D+00  0.0000000000000D+00  0.0000000000000D+00
210  2.0900000000000D+00  0.0000000000000D+00  0.0000000000000D+00
211  2.1000000000000D+00  0.0000000000000D+00  0.0000000000000D+00
212  2.1100000000000D+00  0.0000000000000D+00  0.0000000000000D+00
213  2.1200000000000D+00  0.0000000000000D+00  0.0000000000000D+00
214  2.1300000000000D+00  0.0000000000000D+00  0.0000000000000D+00
215  2.1400000000000D+00  0.0000000000000D+00  0.0000000000000D+00
216  2.1500000000000D+00  0.0000000000000D+00  0.0000000000000D+00
217  2.1600000000000D+00  0.0000000000000D+00  0.0000000000000D+00
218  2.1700000000000D+00  0.0000000000000D+00  0.0000000000000D+00
219  2.1800000000000D+00  0.0000000000000D+00  0.0000000000000D+00
220  2.1900000000000D+00  0.0000000000000D+00  0.0000000000000D+00
221  2.2000000000000D+00  0.0000000000000D+00  0.0000000000000D+00
222  2.2100000000000D+00  0.0000000000000D+00  0.0000000000000D+00
223  2.2200000000000D+00  0.0000000000000D+00  0.0000000000000D+00
224  2.2300000000000D+00  0.0000000000000D+00  0.0000000000000D+00
225  2.2400000000000D+00  0.0000000000000D+00  0.0000000000000D+00
226  2.2500000000000D+00  0.0000000000000D+00  0.0000000000000D+00
227  2.2600000000000D+00  0.0000000000000D+00  0.0000000000000D+00
228  2.2700000000000D+00  0.0000000000000D+00  0.0000000000000D+00
229  2.2800000000000D+00  0.0000000000000D+00  0.0000000000000D+00
230  2.2900000000000D+00  0.0000000000000D+00  0.0000000000000D+00
231  2.3000000000000D+00  0.0000000000000D+00  0.0000000000000D+00
232  2.3100000000000D+00  0.0000000000000D+00  0.0000000000000D+00
233  2.3200000000000D+00  0.0000000000000D+00  0.0000000000000D+00
234  2.3300000000000D+00  0.0000000000000D+00  0.0000000000000D+00
235  2.3400000000000D+00  0.0000000000000D+00  0.0000000000000D+00
236  2.3500000000000D+00  0.0000000000000D+00  0.0000000000000D+00
237  2.3600000000000D+00  0.0000000000000D+00  0.0000000000000D+00
238  2.3700000000000D+00  0.0000000000000D+00  0.0000000000000D+00
239  2.3800000000000D+00  0.0000000000000D+00  0.0000000000000D+00
240  2.3900000000000D+00  0.0000000000000D+00  0.0000000000000D+00
241  2.4000000000000D+00  0.0000000000000D+00  0.0000000000000D+00
242  2.4100000000000D+00  0.0000000000000D+00  0.0000000000000D+00
243  2.4200000000000D+00  0.0000000000000D+00  0.0000000000000D+00
244  2.4300000000000D+00  0.0000000000000D+00  0.0000000000000D+00
245  2.4400000000000D+00  0.0000000000000D+00  0.0000000000000D+00
246  2.4500000000000D+00  0.0000000000000D+00  0.0000000000000D+00
247  2.4600000000000D+00  0.0000000000000D+00  0.0000000000000D+00
248  2.4700000000000D+00  0.0000000000000D+00  0.0000000000000D+00
249  2.4800000000000D+00  0.0000000000000D+00  0.0000000000000D+00
250  2.4900000000000D+00  0.0000000000000D+00  0.0000000000000D+00
251  2.5000000000000D+00  0.0000000000000D+00  0.0000000000000D+00
252  2.5100000000000D+00  0.0000000000000D+00  0.0000000000000D+00
253  2.5200000000000D+00  0.0000000000000D+00  0.0000000000000D+00
254  2.5300000000000D+00  0.0000000000000D+00  0.0000000000000D+00
255  2.5400000000000D+00  0.0000000000000D+00  0.0000000000000D+00
256  2.5500000000000D+00  0.0000000000000D+00  0.0000000000000D+00
257  2.5600000000000D+00  0.0000000000000D+00  0.0000000000000D+00
258  2.5700000000000D+00  0.0000000000000D+00  0.0000000000000D+00
259  2.5800000000000D+00  0.0000000000000D+00  0.0000000000000D+00
260  2.5900000000000D+00  0.0000000000000D+00  0.0000000000000D+00
261  2.6000000000000D+00  0.0000000000000D+00  0.0000000000000D+00
262  2.6100000000000D+00  0.0000000000000D+00  0.0000000000000D+00
263  2.6200000000000D+00  0.0000000000000D+00  0.0000000000000D+00
264  2.6300000000000D+00  0.0000000000000D+00  0.0000000000000D+00
265  2.6400000000000D+00  0.0000000000000D+00  0.0000000000000D+00
266  2.6500000000000D+00  0.0000000000000D+00  0.0000000000000D+00
267  2.6600000000000D+00  0.0000000000000D+00  0.0000000000000D+00
268  2.6700000000000D+00  0.0000000000000D+00  0.0000000000000D+00
269  2.6800000000000D+00  0.0000000000000D+00  0.0000000000000D+00
270  2.6900000000000D+00  0.0000000000000D+00  0.0000000000000D+00
271  2.7000000000000D+00  0.0000000000000D+00  0.0000000000000D+00
272  2.7100000000000D+00  0.0000000000000D+00  0.0000000000000D+00
273  2.7200000000000D+00  0.0000000000000D+00  0.0000000000000D+00
274  2.7300000000000D+00  0.0000000000000D+00  0.0000000000000D+00
275  2.7400000000000D+00  0.0000000000000D+00  0.0000000000000D+00
276  2.7500000000000D+00  0.0000000000000D+00  0.0000000000000D+00
277  2.7600000000000D+00  0.0000000000000D+00  0.0000000000000D+00
278  2.7700000000000D+00  0.0000000000000D+00  0.0000000000000D+00
279  2.7800000000000D+00  0.0000000000000D+00  0.0000000000000D+00
280  2.7900000000000D+00  0.0000000000000D+00  0.0000000000000D+00
281  2.8000000000000D+00  0.0000000000000D+00  0.0000000000000D+00
282  2.8100000000000D+00  0.0000000000000D+00  0.0000000000000D+00
283  2.8200000000000D+00  0.0000000000000D+00  0.0000000000000D+00
284  2.8300000000000D+00  0.0000000000000D+00  0.0000000000000D+00
285  2.8400000000000D+00  0.0000000000000D+00  0.0000000000000D+00
286  2.8500000000000D+00  0.0000000000000D+00  0.0000000000000D+00
287  2.8600000000000D+00  0.0000000000000D+00  0.0000000000000D+00
288  2.8700000000000D+00  0.0000000000000D+00  0.0000000000000D+00
289  2.8800000000000D+00  0.0000000000000D+00  0.0000000000000D+00
290  2.8900000000000D+00  0.0000000000000D+00  0.0000000000000D+00
291  2.9000000000000D+00  0.0000000000000D+00  0.0000000000000D+00
292  2.9100000000000D+00  0.0000000000000D+00  0.0000000000000D+00
293  2.9200000000000D+00  0.0000000000000D+00  0.0000000000000D+00
294  2.9300000000000D+00  0.0000000000000D+00  0.0000000000000D+00
295  2.9400000000000D+00  0.0000000000000D+00  0.0000000000000D+00
296  2.9500000000000D+00  0.0000000000000D+00  0.0000000000000D+00
297  2.9600000000000D+00  0.0000000000000D+00  0.0000000000000D+00
298  2.9700000000000D+00  0.0000000000000D+00  0.0000000000000D+00
299  2.9800000000000D+00  0.0000000000000D+00  0.0000000000000D+00
300  2.9900000000000D+00  0.0000000000000D+00  0.0000000000000D+00
301  3.0000000000000D+00  0.0000000000000D+00  0.0000000000000D+00
302  3.0100000000000D+00  0.0000000000000D+00  0.0000000000000D+00
303  3.0200000000000D+00  0.0000000000000D+00  0.0000000000000D+00
304  3.0300000000000D+00  0.0000000000000D+00  0.0000000000000D+00
305  3.0400000000000D+00  0.0000000000000D+00  0.0000000000000D+00
306  3.0500000000000D+00  0.0000000000000D+00  0.0000000000000D+00
307  3.0600000000000D+00  0.0000000000000D+00  0.0000000000000D+00
308  3.0700000000000D+00  0.0000000000000D+00  0.0000000000000D+00
309  3.0800000000000D+00  0.0000000000000D+00  0.0000000000000D+00
310  3.0900000000000D+00  0.0000000000000D+00  0.0000000000000D+00
311  3.1000000000000D+00  0.0000000000000D+00  0.0000000000000D+00
312  3.1100000000000D+00  0.0000000000000D+00  0.0000000000000D+00
313  3.1200000000000D+00  0.0000000000000D+00  0.0000000000000D+00
314  3.1300000000000D+00  0.0000000000000D+00  0.0000000000000D+00
315  3.1400000000000D+00  0.0000000000000D+00  0.0000000000000D+00
316  3.1500000000000D+00  0.0000000000000D+00  0.0000000000000D+00
317  3.1600000000000D+00  0.0000000000000D+00  0.0000000000000D+00
318  3.1700000000000D+00  0.0000000000000D+00  0.0000000000000D+00
319  3.1800000000000D+00  0.0000000000000D+00  0.0000000000000D+00
320  3.1900000000000D+00  0.0000000000000D+00  0.0000000000000D+00
321  3.2000000000000D+00  0.0000000000000D+00  0.0000000000000D+00
322  3.2100000000000D+00  0.0000000000000D+00  0.0000000000000D+00
323  3.2200000000000D+00  0.0000000000000D+00  0.0000000000000D+00
324  3.2300000000000D+00  0.0000000000000D+00  0.0000000000000D+00
325  3.2400000000000D+00  0.0000000000000D+00  0.0000000000000D+00
326  3.2500000000000D+00  0.0000000000000D+00  0.0000000000000D+00
327  3.2600000000000D+00  0.0000000000000D+00  0.0000000000000D+00
328  3.2700000000000D+00  0.0000000000000D+00  0.0000000000000D+00
329  3.2800000000000D+00  0.0000000000000D+00  0.0000000000000D+00
330  3.2900000000000D+00  0.0000000000000D+00  0.0000000000000D+00
331  3.3000000000000D+00  0.0000000000000D+00  0.0000000000000D+00
332  3.3100000000000D+00  0.0000000000000D+00  0.0000000000000D+00
333  3.3200000000000D+00  0.0000000000000D+00  0.0000000000000D+00
334  3.3300000000000D+00  0.0000000000000D+00  0.0000000000000D+00
335  3.3400000000000D+00  0.0000000000000D+00  0.0000000000000D+00
336  3.3500000000000D+00  0.0000000000000D+00  0.0000000000000D+00
337  3.3600000000000D+00  0.0000000000000D+00  0.0000000000000D+00
338  3.3700000000000D+00  0.0000000000000D+00  0.0000000000000D+00
339  3.3800000000000D+00  0.0000000000000D+00  0.0000000000000D+00
340  3.3900000000000D+00  0.0000000000000D+00  0.0000000000000D+00
341  3.4000000000000D+00  0.0000000000000D+00  0.0000000000000D+00
342  3.4100000000000D+00  0.0000000000000D+00  0.0000000000000D+00
343  3.4200000000000D+00  0.0000000000000D+00  0.0000000000000D+00
344  3.4300000000000D+00  0.0000000000000D+00  0.0000000000000D+00
345  3.4400000000000D+00  0.0000000000000D+00  0.0000000000000D+00
346  3.4500000000000D+00  0.0000000000000D+00  0.0000000000000D+00
347  3.4600000000000D+00  0.0000000000000D+00  0.0000000000000D+00
348  3.4700000000000D+00  0.0000000000000D+00  0.0000000000000D+00
349  3.4800000000000D+00  0.0000000000000D+00  0.0000000000000D+00
350  3.4900000000000D+00  0.0000000000000D+00  0.0000000000000D+00
351  3.5000000000000D+00  0.0000000000000D+00  0.0000000000000D+00
352  3.5100000000000D+00  0.0000000000000D+00  0.0000000000000D+00
353  3.5200000000000D+00  0.0000000000000D+00  0.0000000000000D+00
354  3.5300000000000D+00  0.0000000000000D+00  0.0000000000000D+00
355  3.5400000000000D+00  0.0000000000000D+00  0.0000000000000D+00
356  3.5500000000000D+00  0.0000000000000D+00  0.0000000000000D+00
357  3.5600000000000D+00  0.0000000000000D+00  0.0000000000000D+00
358  3.5700000000000D+00  0.0000000000000D+00  0.0000000000000D+00
359  3.5800000000000D+00  0.0000000000000D+00  0.0000000000000D+00
360  3.5900000000000D+00  0.0000000000000D+00  0.0000000000000D+00
361  3.6000000000000D+00  0.0000000000000D+00  0.0000000000000D+00
362  3.6100000000000D+00  0.0000000000000D+00  0.0000000000000D+00
363  3.6200000000000D+00  0.0000000000000D+00  0.0000000000000D+00
364  3.6300000000000D+00  0.0000000000000D+00  0.0000000000000D+00
365  3.6400000000000D+00  0.0000000000000D+00  0.0000000000000D+00
366  3.6500000000000D+00  0.0000000000000D+00  0.0000000000000D+00
367  3.6600000000000D+00  0.0000000000000D+00  0.0000000000000D+00
368  3.6700000000000D+00  0.0000000000000D+00  0.0000000000000D+00
369  3.6800000000000D+00  0.0000000000000D+00  0.0000000000000D+00
370  3.6900000000000D+00  0.0000000000000D+00  0.0000000000000D+00
371  3.7000000000000D+00  0.0000000000000D+00  0.0000000000000D+00
372  3.7100000000000D+00  0.0000000000000D+00  0.0000000000000D+00
373  3.7200000000000D+00  0.0000000000000D+00  0.0000000000000D+00
374  3.7300000000000D+00  0.0000000000000D+00  0.0000000000000D+00
375  3.7400000000000D+00  0.0000000000000D+00  0.0000000000000D+00
376  3.7500000000000D+00  0.0000000000000D+00  0.0000000000000D+00
377  3.7600000000000D+00  0.0000000000000D+00  0.0000000000000D+00
378  3.7700000000000D+00  0.0000000000000D+00  0.0000000000000D+00
379  3.7800000000000D+00  0.0000000000000D+00  0.0000000000000D+00
380  3.7900000000000D+00  0.0000000000000D+00  0.0000000000000D+00
381  3.8000000000000D+00  0.0000000000000D+00  0.0000000000000D+00
382  3.8100000000000D+00  0.0000000000000D+00  0.0000000000000D+00
383  3.8200000000000D+00  0.0000000000000D+00  0.0000000000000D+00
384  3.8300000000000D+00  0.0000000000000D+00  0.0000000000000D+00
385  3.8400000000000D+00  0.0000000000000D+00  0.0000000000000D+00
386  3.8500000000000D+00  0.0000000000000D+00  0.0000000000000D+00
387  3.8600000000000D+00  0.0000000000000D+00  0.0000000000000D+00
388  3.8700000000000D+00  0.0000000000000D+00  0.0000000000000D+00
389  3.8800000000000D+00  0.0000000000000D+00  0.0000000000000D+00
390  3.8900000000000D+00  0.0000000000000D+00  0.0000000000000D+00
391  3.9000000000000D+00  0.0000000000000D+00  0.0000000000000D+00
392  3.9100000000000D+00  0.0000000000000D+00  0.0000000000000D+00
393  3.9200000000000D+00  0.0000000000000D+00  0.0000000000000D+00
394  3.9300000000000D+00  0.0000000000000D+00  0.0000000000000D+00
395  3.9400000000000D+00  0.0000000000000D+00  0.0000000000000D+00
396  3.9500000000000D+00  0.0000000000000D+00  0.0000000000000D+00
397  3.9600000000000D+00  0.0000000000000D+00  0.0000000000000D+00
398  3.9700000000000D+00  0.0000000000000D+00  0.0000000000000D+00
399  3.9800000000000D+00  0.0000000000000D+00  0.0000000000000D+00
400  3.9900000000000D+00  0.0000000000000D+00  0.0000000000000D+00
401  4.0000000000000D+00  0.0000000000000D+00  0.0000000000000D+00
402  4.0100000000000D+00  0.0000000000000D+00  0.0000000000000D+00
403  4.0200000000000D+00  0.0000000000000D+00  0.0000000000000D+00
404  4.0300000000000D+00  0.0000000000000D+00  0.0000000000000D+00
405  4.0400000000000D+00  0.0000000000000D+00  0.0000000000000D+00
406  4.0500000000000D+00  0.0000000000000D+00  0.0000000000000D+00
407  4.0600000000000D+00  0.0000000000000D+00  0.0000000000000D+00
408  4.0700000000000D+00  0.0000000000000D+00  0.0000000000000D+00
409  4.0800000000000D+00  0.0000000000000D+00  0.0000000000000D+00
410  4.0900000000000D+00  0.0000000000000D+00  0.0000000000000D+00
411  4.1000000000000D+00  0.0000000000000D+00  0.0000000000000D+00
412  4.1100000000000D+00  0.0000000000000D+00  0.0000000000000D+00
413  4.1200000000000D+00  0.0000000000000D+00  0.0000000000000D+00
414  4.1300000000000D+00  0.0000000000000D+00  0.0000000000000D+00
415  4.1400000000000D+00  0.0000000000000D+00  0.0000000000000D+00
416  4.1500000000000D+00  0.0000000000000D+00  0.0000000000000D+00
417  4.1600000000000D+00  0.0000000000000D+00  0.0000000000000D+00
418  4.1700000000000D+00  0.0000000000000D+00  0.0000000000000D+00
419  4.1800000000000D+00  0.0000000000000D+00  0.0000000000000D+00
420  4.1900000000000D+00  0.0000000000000D+00  0.0000000000000D+00
421  4.2000000000000D+00  0.0000000000000D+00  0.0000000000000D+00
422  4.2100000000000D+00  0.0000000000000D+00  0.0000000000000D+00
423  4.2200000000000D+00  0.0000000000000D+00  0.0000000000000D+00
424  4.2300000000000D+00  0.0000000000000D+00  0.0000000000000D+00
425  4.2400000000000D+00  0.0000000000000D+00  0.0000000000000D+00
426  4.2500000000000D+00  0.0000000000000D+00  0.0000000000000D+00
427  4.2600000000000D+00  0.0000000000000D+00  0.0000000000000D+00
428  4.2700000000000D+00  0.0000000000000D+00  0.0000000000000D+00
429  4.2800000000000D+00  0.0000000000000D+00  0.0000000000000D+00
430  4.2900000000000D+00  0.0000000000000D+00  0.0000000000000D+00
431  4.3000000000000D+00  0.0000000000000D+00  0.0000000000000D+00
432  4.3100000000000D+00  0.0000000000000D+00  0.0000000000000D+00
433  4.3200000000000D+00  0.0000000000000D+00  0.0000000000000D+00
434  4.3300000000000D+00  0.0000000000000D+00  0.0000000000000D+00
435  4.3400000000000D+00  0.0000000000000D+00  0.0000000000000D+00
436  4.3500000000000D+00  0.0000000000000D+00  0.0000000000000D+00
437  4.3600000000000D+00  0.0000000000000D+00  0.0000000000000D+00
438  4.3700000000000D+00  0.0000000000000D+00  0.0000000000000D+00
439  4.3800000000000D+00  0.0000000000000D+00  0.0000000000000D+00
440  4.3900000000000D+00  0.0000000000000D+00  0.0000000000000D+00
441  4.4000000000000D+00  0.0000000000000D+00  0.0000000000000D+00
442  4.4100000000000D+00  0.0000000000000D+00  0.0000000000000D+00
443  4.4200000000000D+00  0.0000000000000D+00  0.0000000000000D+00