<?xml version="1.0" encoding="UTF-8" ?>
<psml version="1.1" energy_unit="hartree" length_unit="bohr"
 uuid="f161cef0-5215-11e8-4035-10281bff7f85"
 xmlns="http://esl.cecam.org/PSML/ns/1.1">
<provenance creator="ONCVPSP-3.3.0+psml-3.3.0-73 (fully-relativistic)"
 date="2018-05-07">
<annotation action="semilocal-pseudopotential-generation"
 action-cont="projectors-generation" />
<input-file name="oncvpsp-input">
<![CDATA[# atsym z nc nv iexc psfile
Tl 81 10 5 4 both
# n l f
1 0 2.0
2 0 2.0
2 1 6.0
3 0 2.0
3 1 6.0
3 2 10.0
4 0 2.0
4 1 6.0
4 2 10.0
4 3 14.0
5 0 2.0
5 1 6.0
5 2 10.0
6 0 2.0
6 1 1.0
# lmax
2
# l rc ep ncon nbas qcut
0 1.4 0.0 4 8 9.0
1 1.5 0.0 4 8 8.4
2 1.4 0.0 4 8 9.0
# lloc lpopt rc5 dvloc0
4 5 1.3 0.0
# l nproj debl
0 2 1.0
1 2 1.0
2 2 2.5
# icmod fcfact rcfact
3 9.0 1.2
# epsh1 epsh2 depsh
-12.0 12.0 0.02
# rlmax drl
6.0 0.01
 0
]]>
</input-file>
</provenance>
<pseudo-atom-spec atomic-label="Tl" atomic-number="81" z-pseudo="21"
 flavor="Hamann&apos;s oncvpsp" relativity="dirac" spin-dft="no"
 core-corrections="yes">
<annotation pseudo-energy="-174.798759688" />
<exchange-correlation>
<annotation oncvpsp-xc-code="4" oncvpsp-xc-type="GGA -- Perdew-Burke-Ernzerhof" />
<libxc-info number-of-functionals="2">
<functional name="Perdew, Burke &amp; Ernzerhof (GGA)" type="exchange" id="101" />
<functional name="Perdew, Burke &amp; Ernzerhof (GGA)" type="correlation"
 id="130" />
</libxc-info>
</exchange-correlation>
<valence-configuration total-valence-charge="21">
<shell n="5" l="s" occupation="2" />
<shell n="5" l="p" occupation="6" />
<shell n="5" l="d" occupation="10" />
<shell n="6" l="s" occupation="2" />
<shell n="6" l="p" occupation="1" />
</valence-configuration>
</pseudo-atom-spec>
<grid npts="457">
<annotation type="sampled from oncvpsp log grid"
 recipe="r(i:1..N) = r1*exp(a*(i-1)) + r=0; resampled"
 recipe-cont="r1: scale; a: step" scale="0.617283950617E-05"
 step="0.119285708653E-01" delta="0.500000000000E-02" rmax="44.0862366899" />
<grid-data>
  0.000000000000E+00  5.034229527132E-03  1.005547840830E-02  1.508482106348E-02
  2.008502899497E-02  2.519429444232E-02  3.049231521517E-02  3.560713762894E-02
  4.108688469256E-02  4.629225516251E-02  5.153863959675E-02  5.669921561583E-02
  6.237652131689E-02  6.780859383762E-02  7.283964381425E-02  7.824397190261E-02
  8.404927342464E-02  8.921472189043E-02  9.469762530576E-02  1.005174936213E-01
  1.066950358184E-01  1.119093217371E-01  1.173784346723E-01  1.231148282578E-01
  1.291315647484E-01  1.354423447633E-01  1.420615384838E-01  1.472373699362E-01
  1.526017762239E-01  1.581616278312E-01  1.639240455596E-01  1.698964096482E-01
  1.760863692255E-01  1.825018521063E-01  1.891510749455E-01  1.960425537609E-01
  2.031851148411E-01  2.105879060489E-01  2.156723404525E-01  2.208795334404E-01
  2.262124488958E-01  2.316741222619E-01  2.372676622698E-01  2.429962527077E-01
  2.488631542330E-01  2.548717062288E-01  2.610253287040E-01  2.673275242402E-01
  2.737818799855E-01  2.803920696959E-01  2.871618558266E-01  2.940950916737E-01
  3.011957235671E-01  3.084677931169E-01  3.159154395139E-01  3.235429018855E-01
  3.313545217086E-01  3.393547452808E-01  3.475481262508E-01  3.559393282110E-01
  3.645331273513E-01  3.733344151781E-01  3.823482012982E-01  3.915796162703E-01
  4.010339145255E-01  4.107164773579E-01  4.206328159872E-01  4.256804097790E-01
  4.307885746964E-01  4.359580375927E-01  4.411895340438E-01  4.464838084524E-01
  4.518416141538E-01  4.572637135236E-01  4.627508780859E-01  4.683038886230E-01
  4.739235352864E-01  4.796106177099E-01  4.853659451224E-01  4.911903364639E-01
  4.970846205014E-01  5.030496359474E-01  5.090862315788E-01  5.151952663578E-01
  5.213776095540E-01  5.276341408687E-01  5.339657505591E-01  5.403733395658E-01
  5.468578196406E-01  5.534201134763E-01  5.600611548380E-01  5.667818886961E-01
  5.735832713604E-01  5.804662706168E-01  5.874318658642E-01  5.944810482545E-01
  6.016148208336E-01  6.088341986836E-01  6.161402090678E-01  6.235338915766E-01
  6.310162982755E-01  6.385884938548E-01  6.462515557811E-01  6.540065744505E-01
  6.618546533439E-01  6.697969091840E-01  6.778344720942E-01  6.859684857593E-01
  6.942001075884E-01  7.025305088795E-01  7.109608749861E-01  7.194924054859E-01
  7.281263143517E-01  7.368638301239E-01  7.457061960854E-01  7.546546704385E-01
  7.637105264837E-01  7.728750528015E-01  7.821495534351E-01  7.915353480764E-01
  8.010337722533E-01  8.106461775203E-01  8.203739316506E-01  8.302184188304E-01
  8.401810398563E-01  8.502632123346E-01  8.604663708826E-01  8.707919673332E-01
  8.812414709412E-01  8.918163685925E-01  9.025181650156E-01  9.133483829958E-01
  9.243085635918E-01  9.354002663549E-01  9.466250695511E-01  9.579845703857E-01
  9.694803852304E-01  9.811141498531E-01  9.928875196514E-01  1.004802169887E+00
  1.016859795926E+00  1.029062113477E+00  1.041410858839E+00  1.053907789145E+00
  1.066554682614E+00  1.079353338806E+00  1.092305578871E+00  1.105413245818E+00
  1.118678204768E+00  1.132102343225E+00  1.145687571344E+00  1.159435822200E+00
  1.173349052066E+00  1.187429240691E+00  1.201678391579E+00  1.216098532278E+00
  1.230691714666E+00  1.245460015242E+00  1.260405535424E+00  1.275530401850E+00
  1.290836766672E+00  1.306326807872E+00  1.322002729566E+00  1.337866762321E+00
  1.353921163469E+00  1.370168217431E+00  1.386610236040E+00  1.403249558872E+00
  1.420088553579E+00  1.437129616222E+00  1.454375171616E+00  1.471827673676E+00
  1.489489605760E+00  1.507363481029E+00  1.525451842801E+00  1.543757264915E+00
  1.562282352094E+00  1.581029740319E+00  1.600002097203E+00  1.619202122369E+00
  1.638632547838E+00  1.658296138412E+00  1.678195692073E+00  1.698334040378E+00
  1.718714048862E+00  1.739338617448E+00  1.760210680858E+00  1.781333209028E+00
  1.802709207536E+00  1.824341718027E+00  1.846233818643E+00  1.868388624467E+00
  1.890809287960E+00  1.913498999416E+00  1.936460987409E+00  1.959698519258E+00
  1.983214901489E+00  2.007013480307E+00  2.031097642071E+00  2.055470813775E+00
  2.080136463541E+00  2.105098101103E+00  2.130359278316E+00  2.155923589656E+00
  2.181794672732E+00  2.207976208805E+00  2.234471923311E+00  2.261285586390E+00
  2.288421013427E+00  2.315882065588E+00  2.343672650375E+00  2.371796722180E+00
  2.400258282846E+00  2.429061382240E+00  2.458210118827E+00  2.487708640253E+00
  2.517561143936E+00  2.547771877663E+00  2.578345140195E+00  2.609285281877E+00
  2.640596705260E+00  2.672283865723E+00  2.704351272112E+00  2.736803487377E+00
  2.769645129225E+00  2.802880870776E+00  2.836515441225E+00  2.870553626520E+00
  2.905000270038E+00  2.939860273279E+00  2.975138596558E+00  3.010840259717E+00
  3.046970342834E+00  3.083533986948E+00  3.120536394791E+00  3.157982831528E+00
  3.195878625507E+00  3.234229169013E+00  3.273039919041E+00  3.312316398069E+00
  3.352064194846E+00  3.392288965184E+00  3.432996432767E+00  3.474192389960E+00
  3.515882698639E+00  3.558073291023E+00  3.600770170515E+00  3.643979412562E+00
  3.687707165512E+00  3.731959651498E+00  3.776743167316E+00  3.822064085324E+00
  3.867928854348E+00  3.914344000600E+00  3.961316128607E+00  4.008851922151E+00
  4.056958145217E+00  4.105641642959E+00  4.154909342675E+00  4.204768254787E+00
  4.255225473844E+00  4.306288179530E+00  4.357963637685E+00  4.410259201337E+00
  4.463182311753E+00  4.516740499494E+00  4.570941385488E+00  4.625792682114E+00
  4.681302194299E+00  4.737477820631E+00  4.794327554478E+00  4.851859485132E+00
  4.910081798954E+00  4.969002780541E+00  5.028630813908E+00  5.088974383674E+00
  5.150042076279E+00  5.211842581194E+00  5.274384692168E+00  5.337677308474E+00
  5.401729436176E+00  5.466550189410E+00  5.532148791683E+00  5.598534577183E+00
  5.665716992109E+00  5.733705596015E+00  5.802510063167E+00  5.872140183925E+00
  5.942605866132E+00  6.013917136526E+00  6.086084142164E+00  6.159117151870E+00
  6.233026557692E+00  6.307822876385E+00  6.383516750901E+00  6.460118951912E+00
  6.537640379335E+00  6.616092063887E+00  6.695485168654E+00  6.775830990677E+00
  6.857140962566E+00  6.939426654116E+00  7.022699773966E+00  7.106972171253E+00
  7.192255837308E+00  7.278562907356E+00  7.365905662244E+00  7.454296530191E+00
  7.543748088554E+00  7.634273065616E+00  7.725884342404E+00  7.818594954512E+00
  7.912418093967E+00  8.007367111094E+00  8.103455516427E+00  8.200696982624E+00
  8.299105346416E+00  8.398694610573E+00  8.499478945900E+00  8.601472693251E+00
  8.704690365570E+00  8.809146649956E+00  8.914856409756E+00  9.021834686673E+00
  9.130096702913E+00  9.239657863348E+00  9.350533757708E+00  9.462740162801E+00
  9.576293044754E+00  9.691208561291E+00  9.807503064027E+00  9.925193100795E+00
  1.004429541800E+01  1.016482696302E+01  1.028680488658E+01  1.041024654522E+01
  1.053516950376E+01  1.066159153780E+01  1.078953063626E+01  1.091900500389E+01
  1.105003306394E+01  1.118263346071E+01  1.131682506223E+01  1.145262696298E+01
  1.159005848654E+01  1.172913918838E+01  1.186988885864E+01  1.201232752494E+01
  1.215647545524E+01  1.230235316070E+01  1.244998139863E+01  1.259938117541E+01
  1.275057374952E+01  1.290358063451E+01  1.305842360213E+01  1.321512468535E+01
  1.337370618158E+01  1.353419065576E+01  1.369660094363E+01  1.386096015495E+01
  1.402729167681E+01  1.419561917693E+01  1.436596660705E+01  1.453835820634E+01
  1.471281850481E+01  1.488937232687E+01  1.506804479479E+01  1.524886133233E+01
  1.543184766832E+01  1.561702984034E+01  1.580443419842E+01  1.599408740880E+01
  1.618601645771E+01  1.638024865520E+01  1.657681163907E+01  1.677573337873E+01
  1.697704217928E+01  1.718076668543E+01  1.738693588566E+01  1.759557911628E+01
  1.780672606568E+01  1.802040677847E+01  1.823665165981E+01  1.845549147973E+01
  1.867695737748E+01  1.890108086601E+01  1.912789383640E+01  1.935742856244E+01
  1.958971770519E+01  1.982479431765E+01  2.006269184946E+01  2.030344415166E+01
  2.054708548148E+01  2.079365050726E+01  2.104317431334E+01  2.129569240510E+01
  2.155124071396E+01  2.180985560253E+01  2.207157386976E+01  2.233643275620E+01
  2.260446994927E+01  2.287572358867E+01  2.315023227173E+01  2.342803505899E+01
  2.370917147970E+01  2.399368153745E+01  2.428160571590E+01  2.457298498449E+01
  2.486786080431E+01  2.516627513396E+01  2.546827043557E+01  2.577388968079E+01
  2.608317635696E+01  2.639617447325E+01  2.671292856693E+01  2.703348370973E+01
  2.735788551425E+01  2.768618014042E+01  2.801841430210E+01  2.835463527373E+01
  2.869489089701E+01  2.903922958778E+01  2.938770034283E+01  2.974035274694E+01
  3.009723697991E+01  3.045840382367E+01  3.082390466955E+01  3.119379152558E+01
  3.156811702389E+01  3.194693442818E+01  3.233029764132E+01  3.271826121301E+01
  3.311088034757E+01  3.350821091174E+01  3.391030944268E+01  3.431723315599E+01
  3.472903995386E+01  3.514578843331E+01  3.556753789451E+01  3.599434834924E+01
  3.642628052944E+01  3.686339589579E+01  3.730575664654E+01  3.775342572630E+01
  3.820646683501E+01  3.866494443703E+01  3.912892377028E+01  3.959847085552E+01
  4.007365250579E+01  4.055453633586E+01  4.104119077189E+01  4.153368506115E+01
  4.203208928188E+01  4.253647435326E+01  4.304691204550E+01  4.356347499005E+01
  4.408623668993E+01
</grid-data>
</grid>
<valence-charge total-charge="21" is-unscreening-charge="yes"
 rescaled-to-z-pseudo="no">
<radfunc>
<data npts="457">
  2.534040220148E+00  2.536535525065E+00  2.543995305373E+00  2.556442395892E+00
  2.573751474651E+00  2.596517018328E+00  2.625541178117E+00  2.658789753862E+00
  2.700102575659E+00  2.744792601164E+00  2.795194959283E+00  2.850013493594E+00
  2.916312502200E+00  2.985610071790E+00  3.054892100622E+00  3.134763154829E+00
  3.226827130453E+00  3.314181772509E+00  3.412485352446E+00  3.523090596120E+00
  3.647511273974E+00  3.758125503702E+00  3.879616723558E+00  4.013027721370E+00
  4.159494552466E+00  4.320253109756E+00  4.496645646763E+00  4.640070661427E+00
  4.793763014843E+00  4.958418702412E+00  5.134773467204E+00  5.323603558885E+00
  5.525726145033E+00  5.741999276617E+00  5.973321290269E+00  6.220629507702E+00
  6.484898067198E+00  6.767134693012E+00  6.965785673415E+00  7.173195956690E+00
  7.389682301156E+00  7.615563868752E+00  7.851160843847E+00  8.096792824684E+00
  8.352776962124E+00  8.619425818431E+00  8.897044917012E+00  9.185929952215E+00
  9.486363626675E+00  9.798612082202E+00  1.012292088913E+01  1.045951055822E+01
  1.080857153910E+01  1.117025866954E+01  1.154468504132E+01  1.193191525065E+01
  1.233195800494E+01  1.274475806249E+01  1.317018748922E+01  1.360803622498E+01
  1.405800196417E+01  1.451967936943E+01  1.499254865499E+01  1.547596359735E+01
  1.596913905659E+01  1.647113812065E+01  1.698085901985E+01  1.723822254260E+01
  1.749702199745E+01  1.775706748000E+01  1.801815636674E+01  1.828007294094E+01
  1.854258803376E+01  1.880545868384E+01  1.906842781859E+01  1.933122396102E+01
  1.959356096581E+01  1.985513778894E+01  2.011563829507E+01  2.037473110744E+01
  2.063206950500E+01  2.088729137200E+01  2.114001920505E+01  2.138986018345E+01
  2.163640630804E+01  2.187923461464E+01  2.211790746770E+01  2.235197294020E+01
  2.258096528568E+01  2.280440550828E+01  2.302180203660E+01  2.323265150693E+01
  2.343643966133E+01  2.363264236550E+01  2.382072675115E+01  2.400015248694E+01
  2.417037318150E+01  2.433083792135E+01  2.448099294555E+01  2.462028345814E+01
  2.474815557816E+01  2.486405842587E+01  2.496744634261E+01  2.505778123991E+01
  2.513453507220E+01  2.519719242560E+01  2.524525321348E+01  2.527823546752E+01
  2.529567821120E+01  2.529714440040E+01  2.528222391382E+01  2.525053657407E+01
  2.520173517785E+01  2.513550851220E+01  2.505158433162E+01  2.494973226932E+01
  2.482976665451E+01  2.469154920640E+01  2.453499157454E+01  2.436005769501E+01
  2.416676593129E+01  2.395519096967E+01  2.372546543912E+01  2.347778122748E+01
  2.321239046732E+01  2.292960616741E+01  2.262980246845E+01  2.231341450545E+01
  2.198093786271E+01  2.163292761206E+01  2.126999692933E+01  2.089281528931E+01
  2.050210624439E+01  2.009864479719E+01  1.968325438276E+01  1.925680348049E+01
  1.882020188059E+01  1.837439663387E+01  1.792036771685E+01  1.745912344690E+01
  1.699169568397E+01  1.651913485617E+01  1.604250484676E+01  1.556287777911E+01
  1.508132873459E+01  1.459893043613E+01  1.411674792749E+01  1.363583327513E+01
  1.315722031678E+01  1.268191947773E+01  1.221091267410E+01  1.174514832064E+01
  1.128553646050E+01  1.083294403551E+01  1.038819031757E+01  9.952042526128E+00
  9.525211661203E+00  9.108348588200E+00  8.702040417461E+00  8.306807228934E+00
  7.923099199359E+00  7.551294195544E+00  7.191695901911E+00  6.844532553250E+00
  6.509956344367E+00  6.188043585224E+00  5.878795661107E+00  5.582140845195E+00
  5.297938629749E+00  5.025991486155E+00  4.766060652155E+00  4.517871870955E+00
  4.281118085184E+00  4.055464464207E+00  3.840553596758E+00  3.636014234144E+00
  3.441471560125E+00  3.256549358806E+00  3.080872018462E+00  2.914066292975E+00
  2.755762874032E+00  2.605597773525E+00  2.463213527381E+00  2.328260231084E+00
  2.200396418846E+00  2.079289796036E+00  1.964617836462E+00  1.856068255196E+00
  1.753339367584E+00  1.656140344791E+00  1.564191375922E+00  1.477223746364E+00
  1.394979841524E+00  1.317213084723E+00  1.243687817460E+00  1.174179129783E+00
  1.108472647955E+00  1.046364286088E+00  9.876599679147E-01  9.321753243077E-01
  8.797353716999E-01  8.301741760455E-01  7.833345065023E-01  7.390674825674E-01
  6.972322179774E-01  6.576954642795E-01  6.203312566130E-01  5.850205638839E-01
  5.516509452004E-01  5.201162141344E-01  4.903161121049E-01  4.621559919309E-01
  4.355465123784E-01  4.104033443244E-01  3.866468889821E-01  3.642020084728E-01
  3.429977688897E-01  3.229671958778E-01  3.040470426500E-01  2.861775702678E-01
  2.693023399421E-01  2.533680170456E-01  2.383241864768E-01  2.241231789791E-01
  2.107199079809E-01  1.980717165076E-01  1.861382336957E-01  1.748812404317E-01
  1.642645436379E-01  1.542538587254E-01  1.448166997424E-01  1.359222767533E-01
  1.275414000000E-01  1.196463904083E-01  1.122109960021E-01  1.052103138575E-01
  9.862071717683E-02  9.241978713044E-02  8.658624912041E-02  8.109991313592E-02
  7.594161789422E-02  7.109317847860E-02  6.653733720411E-02  6.225771746053E-02
  5.823878029954E-02  5.446578355090E-02  5.092474326841E-02  4.760239732253E-02
  4.448617097166E-02  4.156414425786E-02  3.882502108662E-02  3.625809986265E-02
  3.385324556532E-02  3.160086315861E-02  2.949187224027E-02  2.751768284463E-02
  2.567017232171E-02  2.394166322377E-02  2.232490213655E-02  2.081303940111E-02
  1.939960967541E-02  1.807851329209E-02  1.684399837282E-02  1.569064366401E-02
  1.461334206217E-02  1.360728480083E-02  1.266794627335E-02  1.179106946868E-02
  1.097265199902E-02  1.020893270030E-02  9.496378787672E-03  8.831673549506E-03
  8.211704564440E-03  7.633552426958E-03  7.094479966970E-03  6.591921950286E-03
  6.123475246536E-03  5.686889451621E-03  5.280057951889E-03  4.901009417351E-03
  4.547899711295E-03  4.219004203643E-03  3.912710475425E-03  3.627511401651E-03
  3.361998599868E-03  3.114856231610E-03  2.884855143947E-03  2.670847338283E-03
  2.471760753609E-03  2.286594351370E-03  2.114413489226E-03  1.954345571030E-03
  1.805575960470E-03  1.667344145985E-03  1.538940144729E-03  1.419701133593E-03
  1.309008295523E-03  1.206283869669E-03  1.110988394214E-03  1.022618131031E-03
  9.407026617235E-04  8.648026449375E-04  7.945077252534E-04  7.294345843513E-04
  6.692251255663E-04  6.135447833593E-04  5.620809496466E-04  5.145415093416E-04
  4.706534778702E-04  4.301617338166E-04  3.928278402406E-04  3.584289485828E-04
  3.267567794266E-04  2.976166747298E-04  2.708267164640E-04  2.462169069068E-04
  2.236284061262E-04  2.029128224721E-04  1.839315521550E-04  1.665551642377E-04
  1.506628276062E-04  1.361417767089E-04  1.228868130681E-04  1.107998397761E-04
  9.978942638288E-05  8.977040177226E-05  8.066347280643E-05  7.239486669186E-05
  6.489599518762E-05  5.810313893689E-05  5.195715035488E-05  4.640317365091E-05
  4.139038069873E-05  3.687172159707E-05  3.280368888119E-05  2.914609445643E-05
  2.586185842504E-05  2.291680906943E-05  2.027949333676E-05  1.792099724316E-05
  1.581477568021E-05  1.393649116224E-05  1.226386110128E-05  1.077651323683E-05
  9.455848882210E-06  8.284913676535E-06  7.248275554170E-06  6.331909661085E-06
  5.523089961126E-06  4.810287285335E-06  4.183073584834E-06  3.632032152769E-06
  3.148673584190E-06  2.725357244803E-06  2.355218020757E-06  2.032098122434E-06
  1.750483715809E-06  1.505446155657E-06  1.292587595929E-06  1.107990754071E-06
  9.481726081325E-07  8.100418082027E-07  6.908595871359E-07  5.882039595954E-07
  4.999370032658E-07  4.241750215211E-07  3.592613928963E-07  3.037419193176E-07
  2.563424921209E-07  2.159489023702E-07  1.815886297839E-07  1.524144524934E-07
  1.276897289337E-07  1.067752086811E-07  8.911724178705E-08  7.423726249681E-08
  6.172242432890E-08  5.121728856446E-08  4.241645671708E-08  3.505805750521E-08
  2.891800162770E-08  2.380492525224E-08  1.955574971724E-08  1.603179119377E-08
  1.311535994637E-08  1.070679436457E-08  8.721880111177E-09  7.089609550749E-09
  5.750241090536E-09  4.653622193548E-09  3.757743622716E-09  3.027495958368E-09
  2.433602613684E-09  1.951706470041E-09  1.561589882583E-09  1.246510182803E-09
  9.926349464416E-10  7.885632182545E-10  6.249206070715E-10  4.940177009100E-10
  3.895626185629E-10  3.064197258143E-10  2.404076155175E-10  1.881303945459E-10
  1.468371496682E-10  1.143051904068E-10  8.874330076311E-11  6.871178334313E-11
  5.305655808572E-11  4.085499185420E-11  3.137149223924E-11  2.402120592393E-11
  1.834042510003E-11  1.396253026944E-11  1.059848929818E-11  8.021095240449E-12
  6.052263144422E-12  4.552822253540E-12  3.414337773750E-12  2.552578356196E-12
  1.902313974090E-12  1.413185974694E-12  1.046438514634E-12  7.723398499619E-13
  5.681543504620E-13  4.165527524214E-13  3.043700044744E-13  2.216379018977E-13
  1.608342317499E-13  1.163019350452E-13  8.380132209922E-14  6.016605439362E-14
  4.303977044092E-14  3.067516439400E-14  2.178125692994E-14  1.540771980031E-14
  1.085758571671E-14  7.621622644590E-15  5.329181003076E-15  3.711518851932E-15
  2.574542717979E-15  1.778625693334E-15  1.223724268545E-15  8.384465385220E-16
  5.720551663238E-16  3.886411661519E-16  2.628968045675E-16  1.770615646988E-16
  1.187249962137E-16  7.920073009768E-17  5.263257859480E-17  3.481628688137E-17
  2.292371600889E-17  0.000000000000E+00  0.000000000000E+00  0.000000000000E+00
  0.000000000000E+00
</data>
</radfunc>
</valence-charge>
<pseudocore-charge matching-radius="0.736863830124"
 number-of-continuous-derivatives="4">
<annotation model-charge-form="Teter function with specified parameters" />
<radfunc>
<data npts="290">
  2.434179025236E+02  2.433929752185E+02  2.433184644912E+02  2.431941729038E+02
  2.430214021475E+02  2.427942925846E+02  2.425049523175E+02  2.421737811460E+02
  2.417627044908E+02  2.413185430647E+02  2.408182532209E+02  2.402749007518E+02
  2.396188240182E+02  2.389343162802E+02  2.382512220485E+02  2.374652757339E+02
  2.365613933744E+02  2.357057536296E+02  2.347451831871E+02  2.336673077568E+02
  2.324584263474E+02  2.313868778922E+02  2.302133776695E+02  2.289288118008E+02
  2.275233745954E+02  2.259865426616E+02  2.243070545742E+02  2.229466226588E+02
  2.214938590426E+02  2.199431805678E+02  2.182887716354E+02  2.165245918950E+02
  2.146443876526E+02  2.126417076099E+02  2.105099236047E+02  2.082422570939E+02
  2.058318121836E+02  2.032716160716E+02  2.014781657746E+02  1.996129776347E+02
  1.976739965030E+02  1.956591914450E+02  1.935665664918E+02  1.913941724782E+02
  1.891401200254E+02  1.868025937239E+02  1.843798675684E+02  1.818703216914E+02
  1.792724604344E+02  1.765849317887E+02  1.738065482230E+02  1.709363089078E+02
  1.679734233230E+02  1.649173362231E+02  1.617677539069E+02  1.585246717166E+02
  1.551884026585E+02  1.517596070065E+02  1.482393227103E+02  1.446289963878E+02
  1.409305146369E+02  1.371462353468E+02  1.332790186389E+02  1.293322570028E+02
  1.253099041349E+02  1.212165019190E+02  1.170572049225E+02  1.149546295380E+02
  1.128378017146E+02  1.107075469399E+02  1.085647322455E+02  1.064102664762E+02
  1.042451004640E+02  1.020702270995E+02  9.988668129330E+01  9.769553981972E+01
  9.549792103503E+01  9.329498446252E+01  9.108793023653E+01  8.887799839790E+01
  8.666646803291E+01  8.445465624845E+01  8.224391697595E+01  8.003563959701E+01
  7.783124738418E+01  7.563219575038E+01  7.343997030131E+01  7.125608468555E+01
  6.908207823777E+01  6.691951341134E+01  6.476997299734E+01  6.263505712790E+01
  6.051638006327E+01  5.841556676253E+01  5.633424923983E+01  5.427406270891E+01
  5.223664152056E+01  5.022361489901E+01  4.823660248518E+01  4.627720969645E+01
  4.434702291453E+01  4.244760451517E+01  4.058048775534E+01  3.874717153592E+01
  3.694911505994E+01  3.518773240893E+01  3.346438706196E+01  3.178038638451E+01
  3.013697611635E+01  2.853533489006E+01  2.697656881368E+01  2.546170615340E+01
  2.399169215358E+01  2.256738403377E+01  2.118954620316E+01  1.985884573480E+01
  1.857584814239E+01  1.734101350338E+01  1.615469297206E+01  1.501712572649E+01
  1.392843639197E+01  1.288863298314E+01  1.189760540461E+01  1.095512454805E+01
  1.006084202060E+01  9.214290536223E+00  8.414884996972E+00  7.661924287008E+00
  6.954593796157E+00  6.291968684092E+00  5.673017889385E+00  5.096608880427E+00
  4.561513137456E+00  4.066412346657E+00  3.609905278705E+00  3.190515315194E+00
  2.806698577365E+00  2.456852602409E+00  2.139325503645E+00  1.852425542115E+00
  1.594431028840E+00  1.363600469263E+00  1.158182854507E+00  9.764279981108E-01
  8.165968121775E-01  6.769714133981E-01  5.558649475647E-01  4.516310209378E-01
  3.626726284450E-01  2.874504722136E-01  2.244905694704E-01  1.723910564162E-01
  1.298281042898E-01  9.556087542734E-02  6.843546058089E-02  4.738775392651E-02
  3.144523883557E-02  1.972767533038E-02  1.144669885009E-02  5.904359131565E-03
  2.490647223273E-03  6.800774284914E-04  2.740881799941E-05  1.626073534093E-04
  7.851641141658E-04  1.657897139683E-03  2.600373538749E-03  3.482094396459E-03
  4.215587318915E-03  4.749549989912E-03  5.062182778250E-03  5.154839264021E-03
  5.046110719977E-03  4.766444405858E-03  4.353376467209E-03  3.847438868160E-03
  3.288776842199E-03  2.714489626200E-03  2.156683630047E-03  1.641204599842E-03
  1.186994662599E-03  8.060022492117E-04  5.035585380912E-04  2.791238606759E-04
  1.273018960836E-04  3.901867337447E-05  2.767373396025E-06  5.828402633314E-06
  3.538667364059E-05  7.948371399739E-05  1.277601857934E-04  1.719635327411E-04
  2.062146040425E-04  2.270450496017E-04  2.332329319660E-04  2.254764045711E-04
  2.059537420478E-04  1.778220468334E-04  1.447065007734E-04  1.102273345434E-04
  7.760334332703E-05  4.935967195565E-05  2.715483913322E-05  1.172881018367E-05
  2.961619020927E-06  2.173704142830E-08  1.576024299436E-06  6.029293931315E-06
  1.176150504665E-05  1.733418674588E-05  2.164430110420E-05  2.401245379715E-05
  2.420200508414E-05  2.237497719505E-05  1.899851733673E-05  1.472109706675E-05
  1.023999514213E-05  6.180743287521E-06  3.005396581092E-06  9.604305830191E-07
  6.779496549297E-08  0.000000000000E+00  0.000000000000E+00  0.000000000000E+00
  0.000000000000E+00  0.000000000000E+00  0.000000000000E+00  0.000000000000E+00
  0.000000000000E+00  0.000000000000E+00  0.000000000000E+00  0.000000000000E+00
  0.000000000000E+00  0.000000000000E+00  0.000000000000E+00  0.000000000000E+00
  0.000000000000E+00  0.000000000000E+00  0.000000000000E+00  0.000000000000E+00
  0.000000000000E+00  0.000000000000E+00  0.000000000000E+00  0.000000000000E+00
  0.000000000000E+00  0.000000000000E+00  0.000000000000E+00  0.000000000000E+00
  0.000000000000E+00  0.000000000000E+00  0.000000000000E+00  0.000000000000E+00
  0.000000000000E+00  0.000000000000E+00  0.000000000000E+00  0.000000000000E+00
  0.000000000000E+00  0.000000000000E+00  0.000000000000E+00  0.000000000000E+00
  0.000000000000E+00  0.000000000000E+00  0.000000000000E+00  0.000000000000E+00
  0.000000000000E+00  0.000000000000E+00  0.000000000000E+00  0.000000000000E+00
  0.000000000000E+00  0.000000000000E+00  0.000000000000E+00  0.000000000000E+00
  0.000000000000E+00  0.000000000000E+00  0.000000000000E+00  0.000000000000E+00
  0.000000000000E+00  0.000000000000E+00  0.000000000000E+00  0.000000000000E+00
  0.000000000000E+00  0.000000000000E+00  0.000000000000E+00  0.000000000000E+00
  0.000000000000E+00  0.000000000000E+00  0.000000000000E+00  0.000000000000E+00
  0.000000000000E+00  0.000000000000E+00
</data>
</radfunc>
</pseudocore-charge>
<semilocal-potentials set="scalar_relativistic">
<slps n="5" l="s" rc="1.40324955887">
<radfunc>
<data npts="290">
 -8.447058724021E+00 -8.451131285045E+00 -8.463299055239E+00 -8.483577516003E+00
 -8.511726825212E+00 -8.548661272328E+00 -8.595604307751E+00 -8.649180777020E+00
 -8.715457720344E+00 -8.786788311641E+00 -8.866786073411E+00 -8.953256178013E+00
 -9.057095951385E+00 -9.164777062676E+00 -9.271571360964E+00 -9.393632015981E+00
 -9.532943673701E+00 -9.663781837883E+00 -9.809476496225E+00 -9.971484933128E+00
 -1.015134972450E+01 -1.030918303474E+01 -1.048033532433E+01 -1.066568145060E+01
 -1.086610600461E+01 -1.108249304823E+01 -1.131571376066E+01 -1.150218542666E+01
 -1.169894192421E+01 -1.190630514087E+01 -1.212457350207E+01 -1.235401661121E+01
 -1.259486949597E+01 -1.284732649425E+01 -1.311153482578E+01 -1.338758790913E+01
 -1.367551849825E+01 -1.397529172627E+01 -1.418166902271E+01 -1.439321050381E+01
 -1.460984696423E+01 -1.483149139515E+01 -1.505803817476E+01 -1.528936230347E+01
 -1.552531869128E+01 -1.576574150498E+01 -1.601044358231E+01 -1.625921591982E+01
 -1.651182724031E+01 -1.676802364527E+01 -1.702752835622E+01 -1.729004154837E+01
 -1.755524027826E+01 -1.782277850588E+01 -1.809228721035E+01 -1.836337459672E+01
 -1.863562638971E+01 -1.890860620899E+01 -1.918185601894E+01 -1.945489664438E+01
 -1.972722834282E+01 -1.999833142227E+01 -2.026766689331E+01 -2.053467714334E+01
 -2.079878662063E+01 -2.105940251628E+01 -2.131591543240E+01 -2.144243845938E+01
 -2.156770002613E+01 -2.169161957362E+01 -2.181411562035E+01 -2.193510577941E+01
 -2.205450677411E+01 -2.217223445371E+01 -2.228820380776E+01 -2.240232898001E+01
 -2.251452328163E+01 -2.262469920373E+01 -2.273276842935E+01 -2.283864184499E+01
 -2.294222955174E+01 -2.304344087618E+01 -2.314218438119E+01 -2.323836787679E+01
 -2.333189843129E+01 -2.342268238285E+01 -2.351062535176E+01 -2.359563225370E+01
 -2.367760731419E+01 -2.375645408463E+01 -2.383207546017E+01 -2.390437369982E+01
 -2.397325044921E+01 -2.403860676626E+01 -2.410034315040E+01 -2.415835957560E+01
 -2.421255552780E+01 -2.426283004723E+01 -2.430908177609E+01 -2.435120901220E+01
 -2.438910976918E+01 -2.442268184368E+01 -2.445182289045E+01 -2.447643050564E+01
 -2.449640231928E+01 -2.451163609733E+01 -2.452202985422E+01 -2.452748197653E+01
 -2.452789135852E+01 -2.452315755032E+01 -2.451318091959E+01 -2.449786282743E+01
 -2.447710581942E+01 -2.445081383260E+01 -2.441889241944E+01 -2.438124898953E+01
 -2.433779307018E+01 -2.428843658678E+01 -2.423309416399E+01 -2.417168344898E+01
 -2.410412545759E+01 -2.403034494476E+01 -2.395027080032E+01 -2.386383647131E+01
 -2.377098041203E+01 -2.367164656310E+01 -2.356578486065E+01 -2.345335177693E+01
 -2.333431089349E+01 -2.320863350839E+01 -2.307629927847E+01 -2.293729689857E+01
 -2.279162481904E+01 -2.263929200396E+01 -2.248031873237E+01 -2.231473744615E+01
 -2.214259364859E+01 -2.196394685942E+01 -2.177887163345E+01 -2.158745865204E+01
 -2.138981589887E+01 -2.118606993466E+01 -2.097636728824E+01 -2.076087598573E+01
 -2.053978724337E+01 -2.031331735476E+01 -2.008170980844E+01 -1.984523767779E+01
 -1.960420633182E+01 -1.935895652226E+01 -1.910986790970E+01 -1.885736309863E+01