<?xml version="1.0" encoding="UTF-8" ?>
<psml version="1.1" energy_unit="hartree" length_unit="bohr"
 uuid="66c209f0-5156-11e8-5f87-a29a9bd74073"
 xmlns="http://esl.cecam.org/PSML/ns/1.1">
<provenance creator="ONCVPSP-3.3.0+psml-3.3.0-73 (fully-relativistic)"
 date="2018-05-06">
<annotation action="semilocal-pseudopotential-generation"
 action-cont="projectors-generation" />
<input-file name="oncvpsp-input">
<![CDATA[# atsym z nc nv iexc psfile
O 8 1 2 4 both
# n l f
1 0 2.0
2 0 2.0
2 1 4.0
# lmax
2
# l rc ep ncon nbas qcut
0 1.25 0.0 4 8 8.5
1 1.35 0.0 4 8 9.4
2 1.25 0.1 4 8 6.0
# lloc lpopt rc5 dvloc0
4 5 1.2 0.0
# l nproj debl
0 2 1.0
1 2 1.0
2 1 1.0
# icmod fcfact
3 4 1.5
# epsh1 epsh2 depsh
-12.0 12.0 0.02
# rlmax drl
6.0 0.01
 0
]]>
</input-file>
</provenance>
<pseudo-atom-spec atomic-label="O" atomic-number="8" z-pseudo="6"
 flavor="Hamann&apos;s oncvpsp" relativity="dirac" spin-dft="no"
 core-corrections="yes">
<annotation pseudo-energy="-15.7727956141" />
<exchange-correlation>
<annotation oncvpsp-xc-code="4" oncvpsp-xc-type="GGA -- Perdew-Burke-Ernzerhof" />
<libxc-info number-of-functionals="2">
<functional name="Perdew, Burke &amp; Ernzerhof (GGA)" type="exchange" id="101" />
<functional name="Perdew, Burke &amp; Ernzerhof (GGA)" type="correlation"
 id="130" />
</libxc-info>
</exchange-correlation>
<valence-configuration total-valence-charge="6">
<shell n="2" l="s" occupation="2" />
<shell n="2" l="p" occupation="4" />
</valence-configuration>
</pseudo-atom-spec>
<grid npts="457">
<annotation type="sampled from oncvpsp log grid"
 recipe="r(i:1..N) = r1*exp(a*(i-1)) + r=0; resampled"
 recipe-cont="r1: scale; a: step" scale="0.625000000000E-04"
 step="0.119285708653E-01" delta="0.500000000000E-02" rmax="44.1243818316" />
<grid-data>
  0.000000000000E+00  5.038585340028E-03  1.006417880273E-02  1.509787304249E-02
  2.010240735005E-02  2.521609353432E-02  3.051869836261E-02  3.563794632140E-02
  4.112243467717E-02  4.633230903787E-02  5.158323284976E-02  5.674827400167E-02
  6.243049193037E-02  6.786726449336E-02  7.290266753181E-02  7.831167165686E-02
  8.412199615352E-02  8.929191396799E-02  9.477956140646E-02  1.006044653004E-01
  1.067873525493E-01  1.120061500728E-01  1.174799950991E-01  1.232213520374E-01
  1.292432944444E-01  1.355595347938E-01  1.421844557004E-01  1.473647654853E-01
  1.527338132677E-01  1.582984754767E-01  1.640658790751E-01  1.700434106874E-01
  1.762387260605E-01  1.826597598689E-01  1.893147358765E-01  1.962121774698E-01
  2.033609185741E-01  2.107701149672E-01  2.158589486230E-01  2.210706470785E-01
  2.264081767816E-01  2.318745758018E-01  2.374729555600E-01  2.432065025990E-01
  2.490784803978E-01  2.550922312285E-01  2.612511780593E-01  2.675588265023E-01
  2.740187668094E-01  2.806346759152E-01  2.874103195305E-01  2.943495542853E-01
  3.014563299240E-01  3.087346915536E-01  3.161887819465E-01  3.238228438978E-01
  3.316412226409E-01  3.396483683203E-01  3.478488385251E-01  3.562473008824E-01
  3.648485357149E-01  3.736574387612E-01  3.826790239627E-01  3.919184263172E-01
  4.013809048022E-01  4.110718453678E-01  4.209967640023E-01  4.260487251704E-01
  4.311613098724E-01  4.363352455909E-01  4.415712685380E-01  4.468701237604E-01
  4.522325652455E-01  4.576593560285E-01  4.631512683008E-01  4.687090835204E-01
  4.743335925227E-01  4.800255956330E-01  4.857859027806E-01  4.916153336139E-01
  4.975147176173E-01  5.034848942287E-01  5.095267129594E-01  5.156410335150E-01
  5.218287259171E-01  5.280906706281E-01  5.344277586757E-01  5.408408917798E-01
  5.473309824811E-01  5.538989542709E-01  5.605457417222E-01  5.672722906228E-01
  5.740795581103E-01  5.809685128076E-01  5.879401349613E-01  5.949954165809E-01
  6.021353615798E-01  6.093609859188E-01  6.166733177498E-01  6.240733975628E-01
  6.315622783336E-01  6.391410256736E-01  6.468107179816E-01  6.545724465974E-01
  6.624273159566E-01  6.703764437481E-01  6.784209610731E-01  6.865620126059E-01
  6.948007567572E-01  7.031383658383E-01  7.115760262283E-01  7.201149385431E-01
  7.287563178056E-01  7.375013936193E-01  7.463514103427E-01  7.553076272668E-01
  7.643713187940E-01  7.735437746195E-01  7.828262999150E-01  7.922202155140E-01
  8.017268581001E-01  8.113475803973E-01  8.210837513621E-01  8.309367563784E-01
  8.409079974550E-01  8.509988934244E-01  8.612108801455E-01  8.715454107073E-01
  8.820039556358E-01  8.925880031034E-01  9.032990591406E-01  9.141386478503E-01
  9.251083116245E-01  9.362096113640E-01  9.474441267004E-01  9.588134562208E-01
  9.703192176954E-01  9.819630483078E-01  9.937466048875E-01  1.005671564146E+00
  1.017739622916E+00  1.029952498391E+00  1.042311928372E+00  1.054819671512E+00
  1.067477507570E+00  1.080287237661E+00  1.093250684513E+00  1.106369692727E+00
  1.119646129040E+00  1.133081882588E+00  1.146678865179E+00  1.160439011562E+00
  1.174364279700E+00  1.188456651057E+00  1.202718130869E+00  1.217150748440E+00
  1.231756557421E+00  1.246537636110E+00  1.261496087743E+00  1.276634040796E+00
  1.291953649286E+00  1.307457093077E+00  1.323146578194E+00  1.339024337133E+00
  1.355092629178E+00  1.371353740728E+00  1.387809985617E+00  1.404463705444E+00
  1.421317269910E+00  1.438373077149E+00  1.455633554074E+00  1.473101156723E+00
  1.490778370604E+00  1.508667711051E+00  1.526771723584E+00  1.545092984267E+00
  1.563634100078E+00  1.582397709279E+00  1.601386481790E+00  1.620603119572E+00
  1.640050357007E+00  1.659730961291E+00  1.679647732826E+00  1.699803505620E+00
  1.720201147688E+00  1.740843561460E+00  1.761733684197E+00  1.782874488408E+00
  1.804268982269E+00  1.825920210056E+00  1.847831252577E+00  1.870005227608E+00
  1.892445290339E+00  1.915154633823E+00  1.938136489429E+00  1.961394127302E+00
  1.984930856830E+00  2.008750027112E+00  2.032855027437E+00  2.057249287766E+00
  2.081936279219E+00  2.106919514570E+00  2.132202548745E+00  2.157788979330E+00
  2.183682447082E+00  2.209886636447E+00  2.236405276084E+00  2.263242139397E+00
  2.290401045070E+00  2.317885857611E+00  2.345700487902E+00  2.373848893757E+00
  2.402335080482E+00  2.431163101448E+00  2.460337058665E+00  2.489861103369E+00
  2.519739436609E+00  2.549976309849E+00  2.580576025567E+00  2.611542937874E+00
  2.642881453128E+00  2.674596030566E+00  2.706691182933E+00  2.739171477128E+00
  2.772041534853E+00  2.805306033271E+00  2.838969705671E+00  2.873037342139E+00
  2.907513790244E+00  2.942403955727E+00  2.977712803196E+00  3.013445356834E+00
  3.049606701116E+00  3.086201981530E+00  3.123236405308E+00  3.160715242172E+00
  3.198643825078E+00  3.237027550979E+00  3.275871881591E+00  3.315182344170E+00
  3.354964532300E+00  3.395224106687E+00  3.435966795968E+00  3.477198397519E+00
  3.518924778289E+00  3.561151875629E+00  3.603885698137E+00  3.647132326514E+00
  3.690897914432E+00  3.735188689406E+00  3.780010953678E+00  3.825371085123E+00
  3.871275538144E+00  3.917730844602E+00  3.964743614737E+00  4.012320538114E+00
  4.060468384571E+00  4.109194005186E+00  4.158504333248E+00  4.208406385247E+00
  4.258907261870E+00  4.310014149013E+00  4.361734318801E+00  4.414075130626E+00
  4.467044032194E+00  4.520648560580E+00  4.574896343307E+00  4.629795099427E+00
  4.685352640620E+00  4.741576872307E+00  4.798475794775E+00  4.856057504312E+00
  4.914330194364E+00  4.973302156697E+00  5.032981782577E+00  5.093377563968E+00
  5.154498094735E+00  5.216352071872E+00  5.278948296735E+00  5.342295676296E+00
  5.406403224411E+00  5.471280063104E+00  5.536935423861E+00  5.603378648948E+00
  5.670619192735E+00  5.738666623048E+00  5.807530622524E+00  5.877220989995E+00
  5.947747641875E+00  6.019120613577E+00  6.091350060940E+00  6.164446261671E+00
  6.238419616811E+00  6.313280652213E+00  6.389040020040E+00  6.465708500280E+00
  6.543297002283E+00  6.621816566311E+00  6.701278365107E+00  6.781693705488E+00
  6.863074029954E+00  6.945430918313E+00  7.028776089333E+00  7.113121402405E+00
  7.198478859234E+00  7.284860605545E+00  7.372278932811E+00  7.460746280005E+00
  7.550275235365E+00  7.640878538189E+00  7.732569080648E+00  7.825359909615E+00
  7.919264228531E+00  8.014295399273E+00  8.110466944064E+00  8.207792547393E+00
  8.306286057962E+00  8.405961490657E+00  8.506833028545E+00  8.608915024888E+00
  8.712222005187E+00  8.816768669249E+00  8.922569893280E+00  9.029640731999E+00
  9.137996420783E+00  9.247652377832E+00  9.358624206366E+00  9.470927696843E+00
  9.584578829205E+00  9.699593775155E+00  9.815988900457E+00  9.933780767263E+00
  1.005298613647E+01  1.017362197011E+01  1.029570543375E+01  1.041925389895E+01
  1.054428494574E+01  1.067081636509E+01  1.079886616147E+01  1.092845255541E+01
  1.105959398607E+01  1.119230911391E+01  1.132661682327E+01  1.146253622515E+01
  1.160008665985E+01  1.173928769977E+01  1.188015915217E+01  1.202272106200E+01
  1.216699371474E+01  1.231299763932E+01  1.246075361099E+01  1.261028265432E+01
  1.276160604617E+01  1.291474531873E+01  1.306972226255E+01  1.322655892970E+01
  1.338527763686E+01  1.354590096850E+01  1.370845178012E+01  1.387295320148E+01
  1.403942863990E+01  1.420790178358E+01  1.437839660498E+01  1.455093736424E+01
  1.472554861261E+01  1.490225519597E+01  1.508108225832E+01  1.526205524542E+01
  1.544519990836E+01  1.563054230726E+01  1.581810881495E+01  1.600792612073E+01
  1.620002123418E+01  1.639442148899E+01  1.659115454686E+01  1.679024840142E+01
  1.699173138224E+01  1.719563215882E+01  1.740197974473E+01  1.761080350166E+01
  1.782213314368E+01  1.803599874141E+01  1.825243072631E+01  1.847145989502E+01
  1.869311741376E+01  1.891743482273E+01  1.914444404060E+01  1.937417736909E+01
  1.960666749752E+01  1.984194750749E+01  2.008005087758E+01  2.032101148811E+01
  2.056486362596E+01  2.081164198948E+01  2.106138169335E+01  2.131411827367E+01
  2.156988769295E+01  2.182872634527E+01  2.209067106141E+01  2.235575911415E+01
  2.262402822352E+01  2.289551656220E+01  2.317026276095E+01  2.344830591408E+01
  2.372968558505E+01  2.401444181207E+01  2.430261511381E+01  2.459424649518E+01
  2.488937745312E+01  2.518804998256E+01  2.549030658235E+01  2.579619026134E+01
  2.610574454447E+01  2.641901347901E+01  2.673604164076E+01  2.705687414044E+01
  2.738155663013E+01  2.771013530969E+01  2.804265693341E+01  2.837916881661E+01
  2.871971884241E+01  2.906435546852E+01  2.941312773414E+01  2.976608526695E+01
  3.012327829015E+01  3.048475762963E+01  3.085057472119E+01  3.122078161784E+01
  3.159543099726E+01  3.197457616923E+01  3.235827108326E+01  3.274657033625E+01
  3.313952918029E+01  3.353720353045E+01  3.393964997282E+01  3.434692577249E+01
  3.475908888176E+01  3.517619794834E+01  3.559831232372E+01  3.602549207161E+01
  3.645779797647E+01  3.689529155219E+01  3.733803505081E+01  3.778609147142E+01
  3.823952456908E+01  3.869839886391E+01  3.916277965027E+01  3.963273300608E+01
  4.010832580215E+01  4.058962571178E+01  4.107670122032E+01  4.156962163496E+01
  4.206845709458E+01  4.257327857972E+01  4.308415792267E+01  4.360116781774E+01
  4.412438183156E+01
</grid-data>
</grid>
<valence-charge total-charge="6" is-unscreening-charge="yes"
 rescaled-to-z-pseudo="no">
<radfunc>
<data npts="457">
  3.259369999771E+00  3.261799534552E+00  3.269059909938E+00  3.281165024941E+00
  3.297979327637E+00  3.320060122527E+00  3.348155360911E+00  3.380262943475E+00
  3.420043962417E+00  3.462935054434E+00  3.511132164346E+00  3.563340748496E+00
  3.626190026555E+00  3.691540338391E+00  3.756528773392E+00  3.831021416402E+00
  3.916319708293E+00  3.996697529967E+00  4.086505155136E+00  4.186740675089E+00
  4.298478364219E+00  4.396918994002E+00  4.504073338336E+00  4.620585058951E+00
  4.747117857330E+00  4.884349320497E+00  5.032962801178E+00  5.152301149731E+00
  5.278704413234E+00  5.412443647213E+00  5.553776128395E+00  5.702940245126E+00
  5.860149622937E+00  6.025586418951E+00  6.199393721813E+00  6.381666999669E+00
  6.572444548260E+00  6.771696905245E+00  6.909189924371E+00  7.050348604278E+00
  7.195098566257E+00  7.343343624078E+00  7.494963846019E+00  7.649813549475E+00
  7.807719239459E+00  7.968477505131E+00  8.131852891628E+00  8.297575767982E+00
  8.465340215684E+00  8.634801966650E+00  8.805576423711E+00  8.977236801515E+00
  9.149312430588E+00  9.321287272385E+00  9.492598698245E+00  9.662636590184E+00
  9.830742826269E+00  9.996211217711E+00  1.015828796857E+01  1.031617273197E+01
  1.046902033834E+01  1.061594327172E+01  1.075601496860E+01  1.088827401001E+01
  1.101172927164E+01  1.112536608754E+01  1.122815347055E+01  1.127515399965E+01
  1.131905241675E+01  1.135971913530E+01  1.139702530135E+01  1.143084314532E+01
  1.146104634964E+01  1.148751043130E+01  1.151011313868E+01  1.152873486160E+01
  1.154325905370E+01  1.155357266563E+01  1.155956658786E+01  1.156113610152E+01
  1.155818133541E+01  1.155060772742E+01  1.153832648825E+01  1.152125506521E+01
  1.149931760379E+01  1.147244540440E+01  1.144057737167E+01  1.140366045358E+01
  1.136165006744E+01  1.131451050983E+01  1.126221534735E+01  1.120474778515E+01
  1.114210101007E+01  1.107427850512E+01  1.100129433241E+01  1.092317338125E+01
  1.083995157842E+01  1.075167605790E+01  1.065840528723E+01  1.056020914782E+01
  1.045716896722E+01  1.034937750094E+01  1.023693886234E+01  1.011996839887E+01
  9.998592513848E+00  9.872948432881E+00  9.743183914690E+00  9.609456906527E+00
  9.471935144725E+00  9.330795701472E+00  9.186224479320E+00  9.038415655449E+00
  8.887571078130E+00  8.733899618333E+00  8.577616479817E+00  8.418942471461E+00
  8.258103245991E+00  8.095328509537E+00  7.930851206806E+00  7.764906686830E+00
  7.597731854463E+00  7.429564312901E+00  7.260641502555E+00  7.091199841587E+00
  6.921473873342E+00  6.751695425782E+00  6.582092787819E+00  6.412889907178E+00
  6.244305614172E+00  6.076552875388E+00  5.909838080972E+00  5.744360368821E+00
  5.580310988643E+00  5.417872708489E+00  5.257219266102E+00  5.098514867139E+00
  4.941913732149E+00  4.787559694116E+00  4.635585848296E+00  4.486114256218E+00
  4.339255705825E+00  4.195109530002E+00  4.053763486054E+00  3.915293699039E+00
  3.779764672225E+00  3.647229368284E+00  3.517729365061E+00  3.391295089881E+00
  3.267946136211E+00  3.147691666129E+00  3.030530901289E+00  2.916453703947E+00
  2.805441247968E+00  2.697466777699E+00  2.592496449975E+00  2.490490251530E+00
  2.391402980691E+00  2.295185278588E+00  2.201784691377E+00  2.111146988419E+00
  2.023218468323E+00  1.937948687828E+00  1.855291444329E+00  1.775204878696E+00
  1.697651884874E+00  1.622599590603E+00  1.550016632551E+00  1.479869440961E+00
  1.412121800552E+00  1.346735652870E+00  1.283670970762E+00  1.222885972964E+00
  1.164337284141E+00  1.107980096233E+00  1.053768326237E+00  1.001654769940E+00
  9.515912513462E-01  9.035287675270E-01  8.574176286537E-01  8.132075930193E-01
  7.708479968695E-01  7.302878789022E-01  6.914760993150E-01  6.543614533145E-01
  6.188927790187E-01  5.850190597163E-01  5.526895204628E-01  5.218537190194E-01
  4.924616311608E-01  4.644637303934E-01  4.378110621491E-01  4.124553125305E-01
  3.883488717011E-01  3.654448920274E-01  3.436973410908E-01  3.230610496989E-01
  3.034917550344E-01  2.849461390902E-01  2.673818625421E-01  2.507575942222E-01
  2.350330363553E-01  2.201689457290E-01  2.061271509693E-01  1.928705660949E-01
  1.803632005274E-01  1.685701657334E-01  1.574576786752E-01  1.469930622470E-01
  1.371447428723E-01  1.278822454365E-01  1.191761857287E-01  1.109982605620E-01
  1.033212357416E-01  9.611893204645E-02  8.936620938682E-02  8.303894929740E-02
  7.711403592194E-02  7.156933564140E-02  6.638367549384E-02  6.153682052911E-02
  5.700945023828E-02  5.278313419136E-02  4.884030701261E-02  4.516424281743E-02
  4.173902922904E-02  3.854954108771E-02  3.558141395916E-02  3.282101754319E-02
  3.025542907711E-02  2.787240682254E-02  2.566036371785E-02  2.360834127249E-02
  2.170598377276E-02  1.994351286295E-02  1.831170255927E-02  1.680185474812E-02
  1.540577521447E-02  1.411575024042E-02  1.292452380832E-02  1.182527543783E-02
  1.081159868109E-02  9.877480295291E-03  9.017280107563E-03  8.225711582750E-03
  7.497823100537E-03  6.828979944855E-03  6.214847004949E-03  5.651372184393E-03
  5.134770511510E-03  4.661508942048E-03  4.228291842727E-03  3.832047142244E-03
  3.469913134582E-03  3.139225917993E-03  2.837507451771E-03  2.562454211958E-03
  2.311926426279E-03  2.083937868093E-03  1.876646188690E-03  1.688343767072E-03
  1.517449056313E-03  1.362498405617E-03  1.222138337462E-03  1.095118259461E-03
  9.802835910338E-04  8.765692854139E-04  7.829937280847E-04  6.986529933097E-04
  6.227154410556E-04  5.544166372505E-04  4.930545809809E-04  4.379852229033E-04
  3.886182598048E-04  3.444131909110E-04  3.048756221754E-04  2.695538054157E-04
  2.380353997626E-04  2.099444434679E-04  1.849385246796E-04  1.627061403175E-04
  1.429642326951E-04  1.254558940130E-04  1.099482293082E-04  9.623036887940E-05
  8.411162162443E-05  7.341976111691E-05  6.399943662874E-05  5.571070166088E-05
  4.842765288887E-05  4.203717275752E-05  3.643776927421E-05  3.153850685333E-05
  2.725802235608E-05  2.352362075167E-05  2.027044509770E-05  1.744071580112E-05
  1.498303437573E-05  1.285174715920E-05  1.100636469168E-05  9.411032690109E-06
  8.034050776433E-06  6.847435335791E-06  5.826523090437E-06  4.949612178565E-06
  4.197637723066E-06  3.553879064032E-06  3.003696010514E-06  2.534291641377E-06
  2.134499352328E-06  1.794592006018E-06  1.506111194812E-06  1.261714771138E-06
  1.055040938530E-06  8.805873274572E-07  7.336036039636E-07  6.099962761054E-07
  5.062444732597E-07  4.193255768084E-07  3.466496775662E-07  2.860019258638E-07
  2.354919245887E-07  1.935093939613E-07  1.586854096056E-07  1.298585828033E-07
  1.060456139486E-07  8.641570740353E-08  7.026838844312E-08  5.701431104127E-08
  4.615868914022E-08  3.728702402335E-08  3.005283672964E-08  2.416714735460E-08
  1.938947281969E-08  1.552014149365E-08  1.239374714090E-08  9.873586269593E-09
  7.846942262452E-09  6.221096891416E-09  4.919965129047E-09  3.881262748319E-09
  3.054128211884E-09  2.397130943963E-09  1.876607394222E-09  1.465274474213E-09
  1.141077093927E-09  8.862327593834E-10  6.864416134987E-10  5.302350039494E-10
  4.084397272903E-10  3.137386040603E-10  2.403110533112E-10  1.835399183383E-10
  1.397730032532E-10  1.061296613721E-10  8.034437465285E-11  6.064061709033E-11
  4.562943796682E-11  3.422816292961E-11  2.559541840266E-11  1.907935989547E-11
  1.417650793948E-11  1.049935752060E-11  7.750395741381E-12  5.702049404787E-12
  0.000000000000E+00  0.000000000000E+00  0.000000000000E+00  0.000000000000E+00
  0.000000000000E+00  0.000000000000E+00  0.000000000000E+00  0.000000000000E+00
  0.000000000000E+00  0.000000000000E+00  0.000000000000E+00  0.000000000000E+00
  0.000000000000E+00  0.000000000000E+00  0.000000000000E+00  0.000000000000E+00
  0.000000000000E+00  0.000000000000E+00  0.000000000000E+00  0.000000000000E+00
  0.000000000000E+00  0.000000000000E+00  0.000000000000E+00  0.000000000000E+00
  0.000000000000E+00  0.000000000000E+00  0.000000000000E+00  0.000000000000E+00
  0.000000000000E+00  0.000000000000E+00  0.000000000000E+00  0.000000000000E+00
  0.000000000000E+00  0.000000000000E+00  0.000000000000E+00  0.000000000000E+00
  0.000000000000E+00  0.000000000000E+00  0.000000000000E+00  0.000000000000E+00
  0.000000000000E+00  0.000000000000E+00  0.000000000000E+00  0.000000000000E+00
  0.000000000000E+00  0.000000000000E+00  0.000000000000E+00  0.000000000000E+00
  0.000000000000E+00  0.000000000000E+00  0.000000000000E+00  0.000000000000E+00
  0.000000000000E+00  0.000000000000E+00  0.000000000000E+00  0.000000000000E+00
  0.000000000000E+00  0.000000000000E+00  0.000000000000E+00  0.000000000000E+00
  0.000000000000E+00  0.000000000000E+00  0.000000000000E+00  0.000000000000E+00
  0.000000000000E+00  0.000000000000E+00  0.000000000000E+00  0.000000000000E+00
  0.000000000000E+00  0.000000000000E+00  0.000000000000E+00  0.000000000000E+00
  0.000000000000E+00  0.000000000000E+00  0.000000000000E+00  0.000000000000E+00
  0.000000000000E+00  0.000000000000E+00  0.000000000000E+00  0.000000000000E+00
  0.000000000000E+00  0.000000000000E+00  0.000000000000E+00  0.000000000000E+00
  0.000000000000E+00  0.000000000000E+00  0.000000000000E+00  0.000000000000E+00
  0.000000000000E+00  0.000000000000E+00  0.000000000000E+00  0.000000000000E+00
  0.000000000000E+00
</data>
</radfunc>
</valence-charge>
<pseudocore-charge matching-radius="0.382679023963"
 number-of-continuous-derivatives="4">
<annotation model-charge-form="Teter function with specified parameters" />
<radfunc>
<data npts="290">
  4.302478926281E+01  4.301431679023E+01  4.298302154908E+01  4.293084535199E+01
  4.285837525888E+01  4.276321335466E+01  4.264214219251E+01  4.250379591608E+01
  4.233240852151E+01  4.214764960053E+01  4.194006790798E+01  4.171524853841E+01
  4.144466189984E+01  4.116336807280E+01  4.088369167753E+01  4.056318545707E+01
  4.019627834301E+01  3.985062182827E+01  3.946450742796E+01  3.903367153915E+01
  3.855352753663E+01  3.813062875755E+01  3.767040138662E+01  3.717009801774E+01
  3.662688390125E+01  3.603786129349E+01  3.540010126778E+01  3.488803928650E+01
  3.434570671147E+01  3.377192420415E+01  3.316556191890E+01  3.252555838800E+01
  3.185094193842E+01  3.114085477103E+01  3.039457979561E+01  2.961157026339E+01
  2.879148216996E+01  2.793420931260E+01  2.734210685981E+01  2.673367267670E+01
  2.610910047394E+01  2.546865700501E+01  2.481268760422E+01  2.414162171599E+01
  2.345597834774E+01  2.275637136873E+01  2.204351456565E+01  2.131822635426E+01
  2.058143403484E+01  1.983417746669E+01  1.907761202592E+01  1.831301069934E+01
  1.754176515753E+01  1.676538564169E+01  1.598549949283E+01  1.520384814844E+01
  1.442228243232E+01  1.364275596775E+01  1.286731655480E+01  1.209809536839E+01
  1.133729385806E+01  1.058716826139E+01  9.850011684081E+00  9.128133749515E+00
  8.423837880498E+00  7.739396346035E+00  7.077023285363E+00  6.754781423185E+00
  6.438846009960E+00  6.129464465468E+00  5.826874979937E+00  5.531305539328E+00
  5.242972952047E+00  4.962081882769E+00  4.688823899429E+00  4.423376539781E+00
  4.165902404282E+00  3.916548282302E+00  3.675444318964E+00  3.442703230093E+00
  3.218419572906E+00  3.002669080176E+00  2.795508065617E+00  2.596972908163E+00
  2.407079622709E+00  2.225823524606E+00  2.053178994896E+00  1.889099352847E+00
  1.733516841774E+00  1.586342733519E+00  1.447467556158E+00  1.316761448654E+00
  1.194074645158E+00  1.079238090571E+00  9.720641877120E-01  8.723476752525E-01
  7.798666340032E-01  6.943836178064E-01  6.156469036722E-01  5.433918542330E-01
  4.773423839849E-01  4.172125191751E-01  3.627080396161E-01  3.135281891791E-01
  2.693674402818E-01  2.299172963568E-01  1.948681151165E-01  1.639109344337E-01
  1.367392818843E-01  1.130509484673E-01  9.254970676878E-02  7.494695388603E-02
  5.996325981427E-02  4.732980271988E-02  3.678967361009E-02  2.809903435255E-02
  2.102811480118E-02  1.536203693219E-02  1.090145636544E-02  7.463014407723E-03
  4.879596764860E-03  3.000398274655E-03  1.690796351369E-03  8.320392321535E-04
  3.207584983100E-04  6.831862414625E-05  1.939469309975E-08  5.416984056815E-05
  1.810547751223E-04  3.418170018226E-04  5.072797127810E-04  6.567344581911E-04
  7.767202818977E-04  8.598191592987E-04  9.034917301692E-04  9.089755039535E-04
  8.802652665251E-04  8.231923986268E-04  7.446163152771E-04  6.517373636198E-04
  5.515364054303E-04  4.503421071225E-04  3.535228224556E-04  2.652960429591E-04
  1.886448666447E-04  1.253279437398E-04  7.596702636441E-05  4.019467749432E-05
  1.684394926871E-05  4.161948106961E-06  3.014716741513E-08  2.176023618074E-06
  8.362983690929E-06  1.654844791095E-05  2.500322528939E-05  3.238870918433E-05
  3.779176900847E-05  4.072028422768E-05  4.106488092862E-05  3.903442905541E-05
  3.507412685294E-05  2.977547886003E-05  2.378716600578E-05  1.773477380796E-05
  1.215570830603E-05  7.453559254791E-06  3.873871514080E-06  1.500980984165E-06
  2.734800470103E-07  1.419395339688E-08  4.694243324961E-07  1.351739037336E-06
  2.380778270656E-06  3.317351168281E-06  3.987392293038E-06  4.293956637721E-06
  4.217143570106E-06  3.803435246304E-06  3.147213504581E-06  2.368027125412E-06
  1.587431532402E-06  9.089078937608E-07  4.035615937590E-07  1.031453696391E-07
  6.436516369749E-10  0.000000000000E+00  0.000000000000E+00  0.000000000000E+00
  0.000000000000E+00  0.000000000000E+00  0.000000000000E+00  0.000000000000E+00
  0.000000000000E+00  0.000000000000E+00  0.000000000000E+00  0.000000000000E+00
  0.000000000000E+00  0.000000000000E+00  0.000000000000E+00  0.000000000000E+00
  0.000000000000E+00  0.000000000000E+00  0.000000000000E+00  0.000000000000E+00
  0.000000000000E+00  0.000000000000E+00  0.000000000000E+00  0.000000000000E+00
  0.000000000000E+00  0.000000000000E+00  0.000000000000E+00  0.000000000000E+00
  0.000000000000E+00  0.000000000000E+00  0.000000000000E+00  0.000000000000E+00
  0.000000000000E+00  0.000000000000E+00  0.000000000000E+00  0.000000000000E+00
  0.000000000000E+00  0.000000000000E+00  0.000000000000E+00  0.000000000000E+00
  0.000000000000E+00  0.000000000000E+00  0.000000000000E+00  0.000000000000E+00
  0.000000000000E+00  0.000000000000E+00  0.000000000000E+00  0.000000000000E+00
  0.000000000000E+00  0.000000000000E+00  0.000000000000E+00  0.000000000000E+00
  0.000000000000E+00  0.000000000000E+00  0.000000000000E+00  0.000000000000E+00
  0.000000000000E+00  0.000000000000E+00  0.000000000000E+00  0.000000000000E+00
  0.000000000000E+00  0.000000000000E+00  0.000000000000E+00  0.000000000000E+00
  0.000000000000E+00  0.000000000000E+00  0.000000000000E+00  0.000000000000E+00
  0.000000000000E+00  0.000000000000E+00  0.000000000000E+00  0.000000000000E+00
  0.000000000000E+00  0.000000000000E+00  0.000000000000E+00  0.000000000000E+00
  0.000000000000E+00  0.000000000000E+00  0.000000000000E+00  0.000000000000E+00
  0.000000000000E+00  0.000000000000E+00  0.000000000000E+00  0.000000000000E+00
  0.000000000000E+00  0.000000000000E+00  0.000000000000E+00  0.000000000000E+00
  0.000000000000E+00  0.000000000000E+00  0.000000000000E+00  0.000000000000E+00
  0.000000000000E+00  0.000000000000E+00  0.000000000000E+00  0.000000000000E+00
  0.000000000000E+00  0.000000000000E+00  0.000000000000E+00  0.000000000000E+00
  0.000000000000E+00  0.000000000000E+00  0.000000000000E+00  0.000000000000E+00
  0.000000000000E+00  0.000000000000E+00
</data>
</radfunc>
</pseudocore-charge>
<semilocal-potentials set="scalar_relativistic">
<slps n="2" l="s" rc="1.26149608774">
<radfunc>
<data npts="290">
 -3.769981357014E+00 -3.770448374745E+00 -3.771845524374E+00 -3.774180338287E+00
 -3.777434565494E+00 -3.781727587774E+00 -3.787221770497E+00 -3.793543825632E+00
 -3.801440090043E+00 -3.810031227712E+00 -3.819779903358E+00 -3.830451484374E+00
 -3.843449479218E+00 -3.857137213458E+00 -3.870920531557E+00 -3.886926094360E+00
 -3.905519243753E+00 -3.923294698734E+00 -3.943442486629E+00 -3.966280562571E+00
 -3.992166980055E+00 -4.015339379429E+00 -4.040946313756E+00 -4.069235492259E+00
 -4.100475834477E+00 -4.134958067486E+00 -4.172994989431E+00 -4.204055978959E+00
 -4.237453379069E+00 -4.273342654119E+00 -4.311885202689E+00 -4.353247723733E+00
 -4.397601383577E+00 -4.445120753044E+00 -4.495982480503E+00 -4.550363663102E+00
 -4.608439874447E+00 -4.670382803590E+00 -4.713908121324E+00 -4.759272099665E+00
 -4.806518867268E+00 -4.855689559754E+00 -4.906821723613E+00 -4.959948663035E+00
 -5.015098726792E+00 -5.072294532493E+00 -5.131552126015E+00 -5.192880074157E+00
 -5.256278489386E+00 -5.321737986069E+00 -5.389238568435E+00 -5.458748451693E+00
 -5.530222818322E+00 -5.603602513546E+00 -5.678812684873E+00 -5.755761372849E+00
 -5.834338062294E+00 -5.914412206579E+00 -5.995831741886E+00 -6.078421614507E+00
 -6.161982353428E+00 -6.246288732766E+00 -6.331088586197E+00 -6.416101858187E+00
 -6.501020005428E+00 -6.585505894770E+00 -6.669194377509E+00 -6.710618159095E+00
 -6.751693747461E+00 -6.792368449058E+00 -6.832588300189E+00 -6.872298220389E+00
 -6.911442188796E+00 -6.949963443145E+00 -6.987804700260E+00 -7.024908396097E+00
 -7.061216942220E+00 -7.096672994682E+00 -7.131219730060E+00 -7.164801122627E+00
 -7.197362215686E+00 -7.228849379620E+00 -7.259210549150E+00 -7.288395432479E+00
 -7.316355685828E+00 -7.343045048280E+00 -7.368419433534E+00 -7.392436977517E+00
 -7.415058043211E+00 -7.436245186699E+00 -7.455963090870E+00 -7.474178475214E+00
 -7.490859992082E+00 -7.505978119028E+00 -7.519505060341E+00 -7.531414663759E+00
 -7.541682363647E+00 -7.550285153386E+00 -7.557201589985E+00 -7.562411829336E+00
 -7.565897687359E+00 -7.567642719236E+00 -7.567632306195E+00 -7.565853737454E+00
 -7.562296273684E+00 -7.556951178081E+00 -7.549811701794E+00 -7.540873011858E+00
 -7.530132052167E+00 -7.517587330923E+00 -7.503238631603E+00 -7.487086648355E+00
 -7.469132550801E+00 -7.449377487292E+00 -7.427822039375E+00 -7.404465643640E+00
 -7.379305999773E+00 -7.352338485765E+00 -7.323555602531E+00 -7.292946470784E+00
 -7.260496403055E+00 -7.226186573157E+00 -7.189993804521E+00 -7.151890497608E+00
 -7.111844715354E+00 -7.069820444169E+00 -7.025778046690E+00 -6.979674921067E+00
 -6.931466380061E+00 -6.881106761602E+00 -6.828550780426E+00 -6.773755127992E+00
 -6.716680324709E+00 -6.657292824559E+00 -6.595567367218E+00 -6.531489566581E+00
 -6.465058717164E+00 -6.396290790896E+00 -6.325221586527E+00 -6.251909982014E+00
 -6.176441227143E+00 -6.098930199313E+00 -6.019524530260E+00 -5.938407495945E+00
 -5.855800546474E+00 -5.771965338493E+00 -5.687205120055E+00 -5.601865308427E+00
 -5.516333096196E+00 -5.431035921607E+00 -5.346438646873E+00 -5.263039304783E+00
 -5.181363300650E+00 -5.101955994643E+00 -5.025373639531E+00 -4.952172711123E+00
 -4.882897742419E+00 -4.818067502991E+00 -4.758164253270E+00 -4.701266451410E+00