O     ONCVPSP-3.3.0  r_core=   1.26150   1.35509   1.26150
8.0000      6.0000      180506    zatom,zion,pspd
8      11   2     4   600     0    pspcod,pspxc,lmax,lloc,mmax,r2well
5.99000000  4.00000000  0.00000000    rchrg fchrg qchrg
2     2     2     0    nproj
3     1           extension_switch
2     2     0    nprojso
0                         9.9763423982879D-01  7.2365004253472D+00
1  0.0000000000000D+00  1.8443265525914D-08 -7.2635648606934D-09
2  1.0000000000000D-02 -4.8087669802911D-02  1.0664829395969D-01
3  2.0000000000000D-02 -9.5372602269250D-02  2.1276178182558D-01
4  3.0000000000000D-02 -1.4106543030447D-01  3.1781161792619D-01
5  4.0000000000000D-02 -1.8440327588342D-01  4.2128077624937D-01
6  5.0000000000000D-02 -2.2466237088774D-01  5.2266970921385D-01
7  6.0000000000000D-02 -2.6116994296372D-01  6.2150171046994D-01
8  7.0000000000000D-02 -2.9331514356140D-01  7.1732789179586D-01
9  8.0000000000000D-02 -3.2055881375861D-01  8.0973169141989D-01
10  9.0000000000000D-02 -3.4244190585849D-01  8.9833283991551D-01
11  1.0000000000000D-01 -3.5859240464721D-01  9.8279072002005D-01
12  1.1000000000000D-01 -3.6873062111412D-01  1.0628070681222D+00
13  1.2000000000000D-01 -3.7267276281773D-01  1.1381279775337D+00
14  1.3000000000000D-01 -3.7033271832504D-01  1.2085451767703D+00
15  1.4000000000000D-01 -3.6172202762203D-01  1.2738965696661D+00
16  1.5000000000000D-01 -3.4694804542848D-01  1.3340660379751D+00
17  1.6000000000000D-01 -3.2621033927610D-01  1.3889825209097D+00
18  1.7000000000000D-01 -2.9979539835389D-01  1.4386183995644D+00
19  1.8000000000000D-01 -2.6806976182896D-01  1.4829872271168D+00
20  1.9000000000000D-01 -2.3147170598381D-01  1.5221408578361D+00
21  2.0000000000000D-01 -1.9050165747584D-01  1.5561660390318D+00
22  2.1000000000000D-01 -1.4571152478079D-01  1.5851805399300D+00
23  2.2000000000000D-01 -9.7693160940242D-02  1.6093288998702D+00
24  2.3000000000000D-01 -4.7066187684440D-02  1.6287778850296D+00
25  2.4000000000000D-01  5.5345764950894D-03  1.6437117479464D+00
26  2.5000000000000D-01  5.9471833945810D-02  1.6543273873525D+00
27  2.6000000000000D-01  1.1411841780755D-01  1.6608295071555D+00
28  2.7000000000000D-01  1.6886954299395D-01  1.6634258728160D+00
29  2.8000000000000D-01  2.2315445377963D-01  1.6623227608454D+00
30  2.9000000000000D-01  2.7644723526776D-01  1.6577206927540D+00
31  3.0000000000000D-01  3.2827657229207D-01  1.6498105385898D+00
32  3.1000000000000D-01  3.7823425987052D-01  1.6387700673363D+00
33  3.2000000000000D-01  4.2598229379529D-01  1.6247610120373D+00
34  3.3000000000000D-01  4.7125839785192D-01  1.6079267067596D+00
35  3.4000000000000D-01  5.1387987499056D-01  1.5883903406062D+00
36  3.5000000000000D-01  5.5374570293104D-01  1.5662538611679D+00
37  3.6000000000000D-01  5.9083682954847D-01  1.5415975463043D+00
38  3.7000000000000D-01  6.2521465927869D-01  1.5144802492420D+00
39  3.8000000000000D-01  6.5701775802605D-01  1.4849403079192D+00
40  3.9000000000000D-01  6.8645683993399D-01  1.4529970955896D+00
41  4.0000000000000D-01  7.1380813420830D-01  1.4186531761737D+00
42  4.1000000000000D-01  7.3940526327262D-01  1.3818970149993D+00
43  4.2000000000000D-01  7.6362979424256D-01  1.3427061836379D+00
44  4.3000000000000D-01  7.8690065341230D-01  1.3010509867806D+00
45  4.4000000000000D-01  8.0966261760690D-01  1.2568984297010D+00
46  4.5000000000000D-01  8.3237411637387D-01  1.2102164370332D+00
47  4.6000000000000D-01  8.5549459464758D-01  1.1609782275010D+00
48  4.7000000000000D-01  8.7947169639727D-01  1.1091667450038D+00
49  4.8000000000000D-01  9.0472853561095D-01  1.0547790441946D+00
50  4.9000000000000D-01  9.3165132163400D-01  9.9783052842515D-01
51  5.0000000000000D-01  9.6057760131384D-01  9.3835893971287D-01
52  5.1000000000000D-01  9.9178537066677D-01  8.7642800417396D-01
53  5.2000000000000D-01  1.0254832940084D+00  8.1213064211785D-01
54  5.3000000000000D-01  1.0618022489337D+00  7.4559165961151D-01
55  5.4000000000000D-01  1.1007883915579D+00  6.7696984765426D-01
56  5.5000000000000D-01  1.1423979084099D+00  6.0645942601201D-01
57  5.6000000000000D-01  1.1864935898571D+00  5.3429078102492D-01
58  5.7000000000000D-01  1.2328433255452D+00  4.6073046009215D-01
59  5.8000000000000D-01  1.2811205855364D+00  3.8608039985927D-01
60  5.9000000000000D-01  1.3309069126144D+00  3.1067638000547D-01
61  6.0000000000000D-01  1.3816964118969D+00  2.3488570983132D-01
62  6.1000000000000D-01  1.4329021846833D+00  1.5910417010139D-01
63  6.2000000000000D-01  1.4838646146635D+00  8.3752247687087D-02
64  6.3000000000000D-01  1.5338613772828D+00  9.2707150695522D-03
65  6.4000000000000D-01  1.5821190078729D+00 -6.3884379566093D-02
66  6.5000000000000D-01  1.6278258315688D+00 -1.3524723325581D-01
67  6.6000000000000D-01  1.6701460290987D+00 -2.0434823058691D-01
68  6.7000000000000D-01  1.7082345874884D+00 -2.7072020811203D-01
69  6.8000000000000D-01  1.7412528641891D+00 -3.3390493358651D-01
70  6.9000000000000D-01  1.7683844776552D+00 -3.9345968680120D-01
71  7.0000000000000D-01  1.7888512271593D+00 -4.4896382486669D-01
72  7.1000000000000D-01  1.8019287399188D+00 -5.0002521304854D-01
73  7.2000000000000D-01  1.8069615446261D+00 -5.4628640273804D-01
74  7.3000000000000D-01  1.8033772771654D+00 -5.8743044084312D-01
75  7.4000000000000D-01  1.7906997366914D+00 -6.2318619981650D-01
76  7.5000000000000D-01  1.7685605279309D+00 -6.5333312453529D-01
77  7.6000000000000D-01  1.7367090486708D+00 -6.7770530136604D-01
78  7.7000000000000D-01  1.6950206090591D+00 -6.9619476564679D-01
79  7.8000000000000D-01  1.6435025014129D+00 -7.0875397644128D-01
80  7.9000000000000D-01  1.5822978750037D+00 -7.1539740149181D-01
81  8.0000000000000D-01  1.5116873091589D+00 -7.1620217057834D-01
82  8.1000000000000D-01  1.4320880192746D+00 -7.1130777170685D-01
83  8.2000000000000D-01  1.3440506732197D+00 -7.0091478140295D-01
84  8.3000000000000D-01  1.2482538393468D+00 -6.8528263757055D-01
85  8.4000000000000D-01  1.1454961310772D+00 -6.6472648057047D-01
86  8.5000000000000D-01  1.0366861559978D+00 -6.3961310506017D-01
87  8.6000000000000D-01  9.2283041877070D-01 -6.1035608139696D-01
88  8.7000000000000D-01  8.0501936613222D-01 -5.7741012073465D-01
89  8.8000000000000D-01  6.8441179809365D-01 -5.4126477204531D-01
90  8.9000000000000D-01  5.6221790146706D-01 -5.0243755190323D-01
91  9.0000000000000D-01  4.3968118938478D-01 -4.6146661872960D-01
92  9.1000000000000D-01  3.1805965302424D-01 -4.1890311210178D-01
93  9.2000000000000D-01  1.9860644882660D-01 -3.7530328449935D-01
94  9.3000000000000D-01  8.2550455749099D-02 -3.3122055734907D-01
95  9.4000000000000D-01 -2.8922957733057D-02 -2.8719763534591D-01
96  9.5000000000000D-01 -1.3469061820214D-01 -2.4375881270813D-01
97  9.6000000000000D-01 -2.3370935206412D-01 -2.0140260226382D-01
98  9.7000000000000D-01 -3.2503259253527D-01 -1.6059481310587D-01
99  9.8000000000000D-01 -4.0782549028247D-01 -1.2176219504862D-01
100  9.9000000000000D-01 -4.8137825450496D-01 -8.5286758285515D-02
101  1.0000000000000D+00 -5.4511748034985D-01 -5.1500865340963D-02
102  1.0100000000000D+00 -5.9861525498521D-01 -2.0683178237787D-02
103  1.0200000000000D+00 -6.4159587250921D-01  6.9444709365529D-03
104  1.0300000000000D+00 -6.7394003062664D-01  3.1219234539315D-02
105  1.0400000000000D+00 -6.9568642657886D-01  5.2038394801075D-02
106  1.0500000000000D+00 -7.0703071863228D-01  6.9359485061654D-02
107  1.0600000000000D+00 -7.0832186194842D-01  8.3199388293169D-02
108  1.0700000000000D+00 -7.0005588207712D-01  9.3632435638241D-02
109  1.0800000000000D+00 -6.8286719164111D-01  1.0078754422809D-01
110  1.0900000000000D+00 -6.5751760272429D-01  1.0484445189318D-01
111  1.1000000000000D+00 -6.2488323151409D-01  1.0602912360600D-01
112  1.1100000000000D+00 -5.8593952621539D-01  1.0460841798260D-01
113  1.1200000000000D+00 -5.4174469245550D-01  1.0088411909571D-01
114  1.1300000000000D+00 -4.9342181512773D-01  9.5186448555375D-02
115  1.1400000000000D+00 -4.4214000419888D-01  8.7867184048549D-02
116  1.1500000000000D+00 -3.8909490840378D-01  7.9292516983091D-02
117  1.1600000000000D+00 -3.3548895956484D-01  6.9835789334949D-02
118  1.1700000000000D+00 -2.8251172146170D-01  5.9870253959872D-02
119  1.1800000000000D+00 -2.3132070787541D-01  4.9761999813817D-02
120  1.1900000000000D+00 -1.8302273937238D-01  3.9863075742051D-02
121  1.2000000000000D+00 -1.3865745196574D-01  3.0505404514048D-02
122  1.2100000000000D+00 -9.9181100829176D-02  2.1994825492058D-02
123  1.2200000000000D+00 -6.5453530264143D-02  1.4604996776184D-02
124  1.2300000000000D+00 -3.8173820126325D-02  8.5598030091016D-03
125  1.2400000000000D+00 -1.7804151388872D-02  4.0132697840444D-03
126  1.2500000000000D+00 -5.3470305529670D-03  1.2269266178543D-03
127  1.2600000000000D+00 -2.7901988645991D-04  9.2965216643714D-05
128  1.2700000000000D+00  3.8926445545770D-04 -7.4137810448348D-05
129  1.2800000000000D+00 -1.0175314194289D-04  2.0318109711150D-05
130  1.2900000000000D+00 -4.7195989517101D-05  9.5873274113343D-06
131  1.3000000000000D+00  2.4819591121321D-05 -4.8607072082677D-06
132  1.3100000000000D+00 -2.4927607486755D-08 -4.0157828703150D-08
133  1.3200000000000D+00 -2.5380200733597D-08 -4.0886946493077D-08
134  1.3300000000000D+00  0.0000000000000D+00  0.0000000000000D+00
135  1.3400000000000D+00  0.0000000000000D+00  0.0000000000000D+00
136  1.3500000000000D+00  0.0000000000000D+00  0.0000000000000D+00
137  1.3600000000000D+00  0.0000000000000D+00  0.0000000000000D+00
138  1.3700000000000D+00  0.0000000000000D+00  0.0000000000000D+00
139  1.3800000000000D+00  0.0000000000000D+00  0.0000000000000D+00
140  1.3900000000000D+00  0.0000000000000D+00  0.0000000000000D+00
141  1.4000000000000D+00  0.0000000000000D+00  0.0000000000000D+00
142  1.4100000000000D+00  0.0000000000000D+00  0.0000000000000D+00
143  1.4200000000000D+00  0.0000000000000D+00  0.0000000000000D+00
144  1.4300000000000D+00  0.0000000000000D+00  0.0000000000000D+00
145  1.4400000000000D+00  0.0000000000000D+00  0.0000000000000D+00
146  1.4500000000000D+00  0.0000000000000D+00  0.0000000000000D+00
147  1.4600000000000D+00  0.0000000000000D+00  0.0000000000000D+00
148  1.4700000000000D+00  0.0000000000000D+00  0.0000000000000D+00
149  1.4800000000000D+00  0.0000000000000D+00  0.0000000000000D+00
150  1.4900000000000D+00  0.0000000000000D+00  0.0000000000000D+00
151  1.5000000000000D+00  0.0000000000000D+00  0.0000000000000D+00
152  1.5100000000000D+00  0.0000000000000D+00  0.0000000000000D+00
153  1.5200000000000D+00  0.0000000000000D+00  0.0000000000000D+00
154  1.5300000000000D+00  0.0000000000000D+00  0.0000000000000D+00
155  1.5400000000000D+00  0.0000000000000D+00  0.0000000000000D+00
156  1.5500000000000D+00  0.0000000000000D+00  0.0000000000000D+00
157  1.5600000000000D+00  0.0000000000000D+00  0.0000000000000D+00
158  1.5700000000000D+00  0.0000000000000D+00  0.0000000000000D+00
159  1.5800000000000D+00  0.0000000000000D+00  0.0000000000000D+00
160  1.5900000000000D+00  0.0000000000000D+00  0.0000000000000D+00
161  1.6000000000000D+00  0.0000000000000D+00  0.0000000000000D+00
162  1.6100000000000D+00  0.0000000000000D+00  0.0000000000000D+00
163  1.6200000000000D+00  0.0000000000000D+00  0.0000000000000D+00
164  1.6300000000000D+00  0.0000000000000D+00  0.0000000000000D+00
165  1.6400000000000D+00  0.0000000000000D+00  0.0000000000000D+00
166  1.6500000000000D+00  0.0000000000000D+00  0.0000000000000D+00
167  1.6600000000000D+00  0.0000000000000D+00  0.0000000000000D+00
168  1.6700000000000D+00  0.0000000000000D+00  0.0000000000000D+00
169  1.6800000000000D+00  0.0000000000000D+00  0.0000000000000D+00
170  1.6900000000000D+00  0.0000000000000D+00  0.0000000000000D+00
171  1.7000000000000D+00  0.0000000000000D+00  0.0000000000000D+00
172  1.7100000000000D+00  0.0000000000000D+00  0.0000000000000D+00
173  1.7200000000000D+00  0.0000000000000D+00  0.0000000000000D+00
174  1.7300000000000D+00  0.0000000000000D+00  0.0000000000000D+00
175  1.7400000000000D+00  0.0000000000000D+00  0.0000000000000D+00
176  1.7500000000000D+00  0.0000000000000D+00  0.0000000000000D+00
177  1.7600000000000D+00  0.0000000000000D+00  0.0000000000000D+00
178  1.7700000000000D+00  0.0000000000000D+00  0.0000000000000D+00
179  1.7800000000000D+00  0.0000000000000D+00  0.0000000000000D+00
180  1.7900000000000D+00  0.0000000000000D+00  0.0000000000000D+00
181  1.8000000000000D+00  0.0000000000000D+00  0.0000000000000D+00
182  1.8100000000000D+00  0.0000000000000D+00  0.0000000000000D+00
183  1.8200000000000D+00  0.0000000000000D+00  0.0000000000000D+00
184  1.8300000000000D+00  0.0000000000000D+00  0.0000000000000D+00
185  1.8400000000000D+00  0.0000000000000D+00  0.0000000000000D+00
186  1.8500000000000D+00  0.0000000000000D+00  0.0000000000000D+00
187  1.8600000000000D+00  0.0000000000000D+00  0.0000000000000D+00
188  1.8700000000000D+00  0.0000000000000D+00  0.0000000000000D+00
189  1.8800000000000D+00  0.0000000000000D+00  0.0000000000000D+00
190  1.8900000000000D+00  0.0000000000000D+00  0.0000000000000D+00
191  1.9000000000000D+00  0.0000000000000D+00  0.0000000000000D+00
192  1.9100000000000D+00  0.0000000000000D+00  0.0000000000000D+00
193  1.9200000000000D+00  0.0000000000000D+00  0.0000000000000D+00
194  1.9300000000000D+00  0.0000000000000D+00  0.0000000000000D+00
195  1.9400000000000D+00  0.0000000000000D+00  0.0000000000000D+00
196  1.9500000000000D+00  0.0000000000000D+00  0.0000000000000D+00
197  1.9600000000000D+00  0.0000000000000D+00  0.0000000000000D+00
198  1.9700000000000D+00  0.0000000000000D+00  0.0000000000000D+00
199  1.9800000000000D+00  0.0000000000000D+00  0.0000000000000D+00
200  1.9900000000000D+00  0.0000000000000D+00  0.0000000000000D+00
201  2.0000000000000D+00  0.0000000000000D+00  0.0000000000000D+00
202  2.0100000000000D+00  0.0000000000000D+00  0.0000000000000D+00
203  2.0200000000000D+00  0.0000000000000D+00  0.0000000000000D+00
204  2.0300000000000D+00  0.0000000000000D+00  0.0000000000000D+00
205  2.0400000000000D+00  0.0000000000000D+00  0.0000000000000D+00
206  2.0500000000000D+00  0.0000000000000D+00  0.0000000000000D+00
207  2.0600000000000D+00  0.0000000000000D+00  0.0000000000000D+00
208  2.0700000000000D+00  0.0000000000000D+00  0.0000000000000D+00
209  2.0800000000000D+00  0.0000000000000D+00  0.0000000000000D+00
210  2.0900000000000D+00  0.0000000000000D+00  0.0000000000000D+00
211  2.1000000000000D+00  0.0000000000000D+00  0.0000000000000D+00
212  2.1100000000000D+00  0.0000000000000D+00  0.0000000000000D+00
213  2.1200000000000D+00  0.0000000000000D+00  0.0000000000000D+00
214  2.1300000000000D+00  0.0000000000000D+00  0.0000000000000D+00
215  2.1400000000000D+00  0.0000000000000D+00  0.0000000000000D+00
216  2.1500000000000D+00  0.0000000000000D+00  0.0000000000000D+00
217  2.1600000000000D+00  0.0000000000000D+00  0.0000000000000D+00
218  2.1700000000000D+00  0.0000000000000D+00  0.0000000000000D+00
219  2.1800000000000D+00  0.0000000000000D+00  0.0000000000000D+00
220  2.1900000000000D+00  0.0000000000000D+00  0.0000000000000D+00
221  2.2000000000000D+00  0.0000000000000D+00  0.0000000000000D+00
222  2.2100000000000D+00  0.0000000000000D+00  0.0000000000000D+00
223  2.2200000000000D+00  0.0000000000000D+00  0.0000000000000D+00
224  2.2300000000000D+00  0.0000000000000D+00  0.0000000000000D+00
225  2.2400000000000D+00  0.0000000000000D+00  0.0000000000000D+00
226  2.2500000000000D+00  0.0000000000000D+00  0.0000000000000D+00
227  2.2600000000000D+00  0.0000000000000D+00  0.0000000000000D+00
228  2.2700000000000D+00  0.0000000000000D+00  0.0000000000000D+00
229  2.2800000000000D+00  0.0000000000000D+00  0.0000000000000D+00
230  2.2900000000000D+00  0.0000000000000D+00  0.0000000000000D+00
231  2.3000000000000D+00  0.0000000000000D+00  0.0000000000000D+00
232  2.3100000000000D+00  0.0000000000000D+00  0.0000000000000D+00
233  2.3200000000000D+00  0.0000000000000D+00  0.0000000000000D+00
234  2.3300000000000D+00  0.0000000000000D+00  0.0000000000000D+00
235  2.3400000000000D+00  0.0000000000000D+00  0.0000000000000D+00
236  2.3500000000000D+00  0.0000000000000D+00  0.0000000000000D+00
237  2.3600000000000D+00  0.0000000000000D+00  0.0000000000000D+00
238  2.3700000000000D+00  0.0000000000000D+00  0.0000000000000D+00
239  2.3800000000000D+00  0.0000000000000D+00  0.0000000000000D+00
240  2.3900000000000D+00  0.0000000000000D+00  0.0000000000000D+00
241  2.4000000000000D+00  0.0000000000000D+00  0.0000000000000D+00
242  2.4100000000000D+00  0.0000000000000D+00  0.0000000000000D+00
243  2.4200000000000D+00  0.0000000000000D+00  0.0000000000000D+00
244  2.4300000000000D+00  0.0000000000000D+00  0.0000000000000D+00
245  2.4400000000000D+00  0.0000000000000D+00  0.0000000000000D+00
246  2.4500000000000D+00  0.0000000000000D+00  0.0000000000000D+00
247  2.4600000000000D+00  0.0000000000000D+00  0.0000000000000D+00
248  2.4700000000000D+00  0.0000000000000D+00  0.0000000000000D+00
249  2.4800000000000D+00  0.0000000000000D+00  0.0000000000000D+00
250  2.4900000000000D+00  0.0000000000000D+00  0.0000000000000D+00
251  2.5000000000000D+00  0.0000000000000D+00  0.0000000000000D+00
252  2.5100000000000D+00  0.0000000000000D+00  0.0000000000000D+00
253  2.5200000000000D+00  0.0000000000000D+00  0.0000000000000D+00
254  2.5300000000000D+00  0.0000000000000D+00  0.0000000000000D+00
255  2.5400000000000D+00  0.0000000000000D+00  0.0000000000000D+00
256  2.5500000000000D+00  0.0000000000000D+00  0.0000000000000D+00
257  2.5600000000000D+00  0.0000000000000D+00  0.0000000000000D+00
258  2.5700000000000D+00  0.0000000000000D+00  0.0000000000000D+00
259  2.5800000000000D+00  0.0000000000000D+00  0.0000000000000D+00
260  2.5900000000000D+00  0.0000000000000D+00  0.0000000000000D+00
261  2.6000000000000D+00  0.0000000000000D+00  0.0000000000000D+00
262  2.6100000000000D+00  0.0000000000000D+00  0.0000000000000D+00
263  2.6200000000000D+00  0.0000000000000D+00  0.0000000000000D+00
264  2.6300000000000D+00  0.0000000000000D+00  0.0000000000000D+00
265  2.6400000000000D+00  0.0000000000000D+00  0.0000000000000D+00
266  2.6500000000000D+00  0.0000000000000D+00  0.0000000000000D+00
267  2.6600000000000D+00  0.0000000000000D+00  0.0000000000000D+00
268  2.6700000000000D+00  0.0000000000000D+00  0.0000000000000D+00
269  2.6800000000000D+00  0.0000000000000D+00  0.0000000000000D+00
270  2.6900000000000D+00  0.0000000000000D+00  0.0000000000000D+00
271  2.7000000000000D+00  0.0000000000000D+00  0.0000000000000D+00
272  2.7100000000000D+00  0.0000000000000D+00  0.0000000000000D+00
273  2.7200000000000D+00  0.0000000000000D+00  0.0000000000000D+00
274  2.7300000000000D+00  0.0000000000000D+00  0.0000000000000D+00
275  2.7400000000000D+00  0.0000000000000D+00  0.0000000000000D+00
276  2.7500000000000D+00  0.0000000000000D+00  0.0000000000000D+00
277  2.7600000000000D+00  0.0000000000000D+00  0.0000000000000D+00
278  2.7700000000000D+00  0.0000000000000D+00  0.0000000000000D+00
279  2.7800000000000D+00  0.0000000000000D+00  0.0000000000000D+00
280  2.7900000000000D+00  0.0000000000000D+00  0.0000000000000D+00
281  2.8000000000000D+00  0.0000000000000D+00  0.0000000000000D+00
282  2.8100000000000D+00  0.0000000000000D+00  0.0000000000000D+00
283  2.8200000000000D+00  0.0000000000000D+00  0.0000000000000D+00
284  2.8300000000000D+00  0.0000000000000D+00  0.0000000000000D+00
285  2.8400000000000D+00  0.0000000000000D+00  0.0000000000000D+00
286  2.8500000000000D+00  0.0000000000000D+00  0.0000000000000D+00
287  2.8600000000000D+00  0.0000000000000D+00  0.0000000000000D+00
288  2.8700000000000D+00  0.0000000000000D+00  0.0000000000000D+00
289  2.8800000000000D+00  0.0000000000000D+00  0.0000000000000D+00
290  2.8900000000000D+00  0.0000000000000D+00  0.0000000000000D+00
291  2.9000000000000D+00  0.0000000000000D+00  0.0000000000000D+00
292  2.9100000000000D+00  0.0000000000000D+00  0.0000000000000D+00
293  2.9200000000000D+00  0.0000000000000D+00  0.0000000000000D+00
294  2.9300000000000D+00  0.0000000000000D+00  0.0000000000000D+00
295  2.9400000000000D+00  0.0000000000000D+00  0.0000000000000D+00
296  2.9500000000000D+00  0.0000000000000D+00  0.0000000000000D+00
297  2.9600000000000D+00  0.0000000000000D+00  0.0000000000000D+00
298  2.9700000000000D+00  0.0000000000000D+00  0.0000000000000D+00
299  2.9800000000000D+00  0.0000000000000D+00  0.0000000000000D+00
300  2.9900000000000D+00  0.0000000000000D+00  0.0000000000000D+00
301  3.0000000000000D+00  0.0000000000000D+00  0.0000000000000D+00
302  3.0100000000000D+00  0.0000000000000D+00  0.0000000000000D+00
303  3.0200000000000D+00  0.0000000000000D+00  0.0000000000000D+00
304  3.0300000000000D+00  0.0000000000000D+00  0.0000000000000D+00
305  3.0400000000000D+00  0.0000000000000D+00  0.0000000000000D+00
306  3.0500000000000D+00  0.0000000000000D+00  0.0000000000000D+00
307  3.0600000000000D+00  0.0000000000000D+00  0.0000000000000D+00
308  3.0700000000000D+00  0.0000000000000D+00  0.0000000000000D+00
309  3.0800000000000D+00  0.0000000000000D+00  0.0000000000000D+00
310  3.0900000000000D+00  0.0000000000000D+00  0.0000000000000D+00
311  3.1000000000000D+00  0.0000000000000D+00  0.0000000000000D+00
312  3.1100000000000D+00  0.0000000000000D+00  0.0000000000000D+00
313  3.1200000000000D+00  0.0000000000000D+00  0.0000000000000D+00
314  3.1300000000000D+00  0.0000000000000D+00  0.0000000000000D+00
315  3.1400000000000D+00  0.0000000000000D+00  0.0000000000000D+00
316  3.1500000000000D+00  0.0000000000000D+00  0.0000000000000D+00
317  3.1600000000000D+00  0.0000000000000D+00  0.0000000000000D+00
318  3.1700000000000D+00  0.0000000000000D+00  0.0000000000000D+00
319  3.1800000000000D+00  0.0000000000000D+00  0.0000000000000D+00
320  3.1900000000000D+00  0.0000000000000D+00  0.0000000000000D+00
321  3.2000000000000D+00  0.0000000000000D+00  0.0000000000000D+00
322  3.2100000000000D+00  0.0000000000000D+00  0.0000000000000D+00
323  3.2200000000000D+00  0.0000000000000D+00  0.0000000000000D+00
324  3.2300000000000D+00  0.0000000000000D+00  0.0000000000000D+00
325  3.2400000000000D+00  0.0000000000000D+00  0.0000000000000D+00
326  3.2500000000000D+00  0.0000000000000D+00  0.0000000000000D+00
327  3.2600000000000D+00  0.0000000000000D+00  0.0000000000000D+00
328  3.2700000000000D+00  0.0000000000000D+00  0.0000000000000D+00
329  3.2800000000000D+00  0.0000000000000D+00  0.0000000000000D+00
330  3.2900000000000D+00  0.0000000000000D+00  0.0000000000000D+00
331  3.3000000000000D+00  0.0000000000000D+00  0.0000000000000D+00
332  3.3100000000000D+00  0.0000000000000D+00  0.0000000000000D+00
333  3.3200000000000D+00  0.0000000000000D+00  0.0000000000000D+00
334  3.3300000000000D+00  0.0000000000000D+00  0.0000000000000D+00
335  3.3400000000000D+00  0.0000000000000D+00  0.0000000000000D+00
336  3.3500000000000D+00  0.0000000000000D+00  0.0000000000000D+00
337  3.3600000000000D+00  0.0000000000000D+00  0.0000000000000D+00
338  3.3700000000000D+00  0.0000000000000D+00  0.0000000000000D+00
339  3.3800000000000D+00  0.0000000000000D+00  0.0000000000000D+00
340  3.3900000000000D+00  0.0000000000000D+00  0.0000000000000D+00
341  3.4000000000000D+00  0.0000000000000D+00  0.0000000000000D+00
342  3.4100000000000D+00  0.0000000000000D+00  0.0000000000000D+00
343  3.4200000000000D+00  0.0000000000000D+00  0.0000000000000D+00
344  3.4300000000000D+00  0.0000000000000D+00  0.0000000000000D+00
345  3.4400000000000D+00  0.0000000000000D+00  0.0000000000000D+00
346  3.4500000000000D+00  0.0000000000000D+00  0.0000000000000D+00
347  3.4600000000000D+00  0.0000000000000D+00  0.0000000000000D+00
348  3.4700000000000D+00  0.0000000000000D+00  0.0000000000000D+00
349  3.4800000000000D+00  0.0000000000000D+00  0.0000000000000D+00
350  3.4900000000000D+00  0.0000000000000D+00  0.0000000000000D+00
351  3.5000000000000D+00  0.0000000000000D+00  0.0000000000000D+00
352  3.5100000000000D+00  0.0000000000000D+00  0.0000000000000D+00
353  3.5200000000000D+00  0.0000000000000D+00  0.0000000000000D+00
354  3.5300000000000D+00  0.0000000000000D+00  0.0000000000000D+00
355  3.5400000000000D+00  0.0000000000000D+00  0.0000000000000D+00
356  3.5500000000000D+00  0.0000000000000D+00  0.0000000000000D+00
357  3.5600000000000D+00  0.0000000000000D+00  0.0000000000000D+00
358  3.5700000000000D+00  0.0000000000000D+00  0.0000000000000D+00
359  3.5800000000000D+00  0.0000000000000D+00  0.0000000000000D+00
360  3.5900000000000D+00  0.0000000000000D+00  0.0000000000000D+00
361  3.6000000000000D+00  0.0000000000000D+00  0.0000000000000D+00
362  3.6100000000000D+00  0.0000000000000D+00  0.0000000000000D+00
363  3.6200000000000D+00  0.0000000000000D+00  0.0000000000000D+00
364  3.6300000000000D+00  0.0000000000000D+00  0.0000000000000D+00
365  3.6400000000000D+00  0.0000000000000D+00  0.0000000000000D+00
366  3.6500000000000D+00  0.0000000000000D+00  0.0000000000000D+00
367  3.6600000000000D+00  0.0000000000000D+00  0.0000000000000D+00
368  3.6700000000000D+00  0.0000000000000D+00  0.0000000000000D+00
369  3.6800000000000D+00  0.0000000000000D+00  0.0000000000000D+00
370  3.6900000000000D+00  0.0000000000000D+00  0.0000000000000D+00
371  3.7000000000000D+00  0.0000000000000D+00  0.0000000000000D+00
372  3.7100000000000D+00  0.0000000000000D+00  0.0000000000000D+00
373  3.7200000000000D+00  0.0000000000000D+00  0.0000000000000D+00
374  3.7300000000000D+00  0.0000000000000D+00  0.0000000000000D+00
375  3.7400000000000D+00  0.0000000000000D+00  0.0000000000000D+00
376  3.7500000000000D+00  0.0000000000000D+00  0.0000000000000D+00
377  3.7600000000000D+00  0.0000000000000D+00  0.0000000000000D+00
378  3.7700000000000D+00  0.0000000000000D+00  0.0000000000000D+00
379  3.7800000000000D+00  0.0000000000000D+00  0.0000000000000D+00
380  3.7900000000000D+00  0.0000000000000D+00  0.0000000000000D+00
381  3.8000000000000D+00  0.0000000000000D+00  0.0000000000000D+00
382  3.8100000000000D+00  0.0000000000000D+00  0.0000000000000D+00
383  3.8200000000000D+00  0.0000000000000D+00  0.0000000000000D+00
384  3.8300000000000D+00  0.0000000000000D+00  0.0000000000000D+00
385  3.8400000000000D+00  0.0000000000000D+00  0.0000000000000D+00
386  3.8500000000000D+00  0.0000000000000D+00  0.0000000000000D+00
387  3.8600000000000D+00  0.0000000000000D+00  0.0000000000000D+00
388  3.8700000000000D+00  0.0000000000000D+00  0.0000000000000D+00
389  3.8800000000000D+00  0.0000000000000D+00  0.0000000000000D+00
390  3.8900000000000D+00  0.0000000000000D+00  0.0000000000000D+00
391  3.9000000000000D+00  0.0000000000000D+00  0.0000000000000D+00
392  3.9100000000000D+00  0.0000000000000D+00  0.0000000000000D+00
393  3.9200000000000D+00  0.0000000000000D+00  0.0000000000000D+00
394  3.9300000000000D+00  0.0000000000000D+00  0.0000000000000D+00
395  3.9400000000000D+00  0.0000000000000D+00  0.0000000000000D+00
396  3.9500000000000D+00  0.0000000000000D+00  0.0000000000000D+00
397  3.9600000000000D+00  0.0000000000000D+00  0.0000000000000D+00
398  3.9700000000000D+00  0.0000000000000D+00  0.0000000000000D+00
399  3.9800000000000D+00  0.0000000000000D+00  0.0000000000000D+00
400  3.9900000000000D+00  0.0000000000000D+00  0.0000000000000D+00
401  4.0000000000000D+00  0.0000000000000D+00  0.0000000000000D+00
402  4.0100000000000D+00  0.0000000000000D+00  0.0000000000000D+00
403  4.0200000000000D+00  0.0000000000000D+00  0.0000000000000D+00
404  4.0300000000000D+00  0.0000000000000D+00  0.0000000000000D+00
405  4.0400000000000D+00  0.0000000000000D+00  0.0000000000000D+00
406  4.0500000000000D+00  0.0000000000000D+00  0.0000000000000D+00
407  4.0600000000000D+00  0.0000000000000D+00  0.0000000000000D+00
408  4.0700000000000D+00  0.0000000000000D+00  0.0000000000000D+00
409  4.0800000000000D+00  0.0000000000000D+00  0.0000000000000D+00
410  4.0900000000000D+00  0.0000000000000D+00  0.0000000000000D+00
411  4.1000000000000D+00  0.0000000000000D+00  0.0000000000000D+00
412  4.1100000000000D+00  0.0000000000000D+00  0.0000000000000D+00
413  4.1200000000000D+00  0.0000000000000D+00  0.0000000000000D+00
414  4.1300000000000D+00  0.0000000000000D+00  0.0000000000000D+00
415  4.1400000000000D+00  0.0000000000000D+00  0.0000000000000D+00
416  4.1500000000000D+00  0.0000000000000D+00  0.0000000000000D+00
417  4.1600000000000D+00  0.0000000000000D+00  0.0000000000000D+00
418  4.1700000000000D+00  0.0000000000000D+00  0.0000000000000D+00
419  4.1800000000000D+00  0.0000000000000D+00  0.0000000000000D+00
420  4.1900000000000D+00  0.0000000000000D+00  0.0000000000000D+00
421  4.2000000000000D+00  0.0000000000000D+00  0.0000000000000D+00
422  4.2100000000000D+00  0.0000000000000D+00  0.0000000000000D+00
423  4.2200000000000D+00  0.0000000000000D+00  0.0000000000000D+00
424  4.2300000000000D+00  0.0000000000000D+00  0.0000000000000D+00
425  4.2400000000000D+00  0.0000000000000D+00  0.0000000000000D+00
426  4.2500000000000D+00  0.0000000000000D+00  0.0000000000000D+00
427  4.2600000000000D+00  0.0000000000000D+00  0.0000000000000D+00
428  4.2700000000000D+00  0.0000000000000D+00  0.0000000000000D+00
429  4.2800000000000D+00  0.0000000000000D+00  0.0000000000000D+00
430  4.2900000000000D+00  0.0000000000000D+00  0.0000000000000D+00
431  4.3000000000000D+00  0.0000000000000D+00  0.0000000000000D+00
432  4.3100000000000D+00  0.0000000000000D+00  0.0000000000000D+00
433  4.3200000000000D+00  0.0000000000000D+00  0.0000000000000D+00
434  4.3300000000000D+00  0.0000000000000D+00  0.0000000000000D+00
435  4.3400000000000D+00  0.0000000000000D+00  0.0000000000000D+00
436  4.3500000000000D+00  0.0000000000000D+00  0.0000000000000D+00
437  4.3600000000000D+00  0.0000000000000D+00  0.0000000000000D+00
438  4.3700000000000D+00  0.0000000000000D+00  0.0000000000000D+00
439  4.3800000000000D+00  0.0000000000000D+00  0.0000000000000D+00
440  4.3900000000000D+00  0.0000000000000D+00  0.0000000000000D+00
441  4.4000000000000D+00  0.0000000000000D+00  0.0000000000000D+00
442  4.4100000000000D+00  0.0000000000000D+00  0.0000000000000D+00
443  4.4200000000000D+00  0.0000000000000D+00  0.0000000000000D+00