<?xml version="1.0" encoding="UTF-8" ?>
<psml version="1.1" energy_unit="hartree" length_unit="bohr"
 uuid="8bf0c540-44bd-11e8-5476-84e0fffb5ce7"
 xmlns="http://esl.cecam.org/PSML/ns/1.1">
<provenance creator="ONCVPSP-3.3.0+psml-3.3.0-73 (fully-relativistic)"
 date="2018-04-20">
<annotation action="semilocal-pseudopotential-generation"
 action-cont="projectors-generation" />
<input-file name="oncvpsp-input">
<![CDATA[# atsym z nc nv iexc psfile
Re 75 10 4 4 both
# n l f
1 0 2.0
2 0 2.0
2 1 6.0
3 0 2.0
3 1 6.0
3 2 10.0
4 0 2.0
4 1 6.0
4 2 10.0
4 3 14.0
5 0 2.0
5 1 6.0
5 2 5.0
6 0 2.0
# lmax
3
# l rc ep ncon nbas qcut
0 1.6 0.0 4 8 7.4
1 1.6 0.0 4 8 7.8
2 1.6 0.0 4 9 7.4
3 2.0 0.15 4 8 6.0
# lloc lpopt rc5 dvloc0
4 5 1.6 0.0
# l nproj debl
0 2 1.0
1 2 2.0
2 2 1.8
3 2 2.9
# icmod fcfact rcfact
3 4.0 1.44
# epsh1 epsh2 depsh
-12.0 12.0 0.02
# rlmax drl
6.0 0.01
 0
]]>
</input-file>
</provenance>
<pseudo-atom-spec atomic-label="Re" atomic-number="75" z-pseudo="15"
 flavor="Hamann&apos;s oncvpsp" relativity="dirac" spin-dft="no"
 core-corrections="yes">
<annotation pseudo-energy="-80.0348988605" />
<exchange-correlation>
<annotation oncvpsp-xc-code="4" oncvpsp-xc-type="GGA -- Perdew-Burke-Ernzerhof" />
<libxc-info number-of-functionals="2">
<functional name="Perdew, Burke &amp; Ernzerhof (GGA)" type="exchange" id="101" />
<functional name="Perdew, Burke &amp; Ernzerhof (GGA)" type="correlation"
 id="130" />
</libxc-info>
</exchange-correlation>
<valence-configuration total-valence-charge="15">
<shell n="5" l="s" occupation="2" />
<shell n="5" l="p" occupation="6" />
<shell n="5" l="d" occupation="5" />
<shell n="6" l="s" occupation="2" />
</valence-configuration>
</pseudo-atom-spec>
<grid npts="457">
<annotation type="sampled from oncvpsp log grid"
 recipe="r(i:1..N) = r1*exp(a*(i-1)) + r=0; resampled"
 recipe-cont="r1: scale; a: step" scale="0.666666666667E-05"
 step="0.119285708653E-01" delta="0.500000000000E-02" rmax="44.3244860336" />
<grid-data>
  0.000000000000E+00  5.001418319608E-03  1.010981988336E-02  1.516634194138E-02
  2.019357182683E-02  2.533044859306E-02  3.065710074992E-02  3.579956451334E-02
  4.081909588935E-02  4.599053971972E-02  5.120273020085E-02  5.632967153367E-02
  6.196997469948E-02  6.736664302225E-02  7.323328134463E-02  7.866681531939E-02
  8.450348965482E-02  8.969685306186E-02  9.520938699770E-02  1.010607068480E-01
  1.072716335089E-01  1.125140982946E-01  1.180127672242E-01  1.237801612332E-01
  1.298294131669E-01  1.361742976849E-01  1.428292626275E-01  1.480330651325E-01
  1.534264615625E-01  1.590163595311E-01  1.648099183218E-01  1.708145580576E-01
  1.770379692044E-01  1.834881224200E-01  1.901732787635E-01  1.971020002748E-01
  2.042831609411E-01  2.117259580618E-01  2.168378695933E-01  2.220732031167E-01
  2.274349385328E-01  2.329261276887E-01  2.385498961156E-01  2.443094448074E-01
  2.502080520429E-01  2.562490752514E-01  2.624359529243E-01  2.687722065717E-01
  2.752614427271E-01  2.819073550003E-01  2.887137261795E-01  2.956844303843E-01
  3.028234352715E-01  3.101348042927E-01  3.176226990076E-01  3.252913814524E-01
  3.331452165662E-01  3.411886746750E-01  3.494263340363E-01  3.578628834453E-01
  3.665031249032E-01  3.753519763509E-01  3.844144744679E-01  3.936957775394E-01
  4.032011683924E-01  4.129360574020E-01  4.229059855719E-01  4.279808573988E-01
  4.331166276876E-01  4.383140272198E-01  4.435737955465E-01  4.488966810930E-01
  4.542834412662E-01  4.597348425613E-01  4.652516606721E-01  4.708346806001E-01
  4.764846967673E-01  4.822025131286E-01  4.879889432861E-01  4.938448106055E-01
  4.997709483328E-01  5.057681997128E-01  5.118374181093E-01  5.179794671267E-01
  5.241952207322E-01  5.304855633810E-01  5.368513901415E-01  5.432936068232E-01
  5.498131301051E-01  5.564108876664E-01  5.630878183184E-01  5.698448721382E-01
  5.766830106038E-01  5.836032067311E-01  5.906064452119E-01  5.976937225544E-01
  6.048660472251E-01  6.121244397918E-01  6.194699330693E-01  6.269035722661E-01
  6.344264151333E-01  6.420395321149E-01  6.497440065003E-01  6.575409345783E-01
  6.654314257932E-01  6.734166029027E-01  6.814976021376E-01  6.896755733632E-01
  6.979516802436E-01  7.063271004065E-01  7.148030256114E-01  7.233806619187E-01
  7.320612298617E-01  7.408459646201E-01  7.497361161955E-01  7.587329495899E-01
  7.678377449849E-01  7.770517979248E-01  7.863764194999E-01  7.958129365339E-01
  8.053626917723E-01  8.150270440735E-01  8.248073686024E-01  8.347050570256E-01
  8.447215177099E-01  8.548581759225E-01  8.651164740335E-01  8.754978717219E-01
  8.860038461826E-01  8.966358923368E-01  9.073955230448E-01  9.182842693214E-01
  9.293036805532E-01  9.404553247199E-01  9.517407886165E-01  9.631616780799E-01
  9.747196182169E-01  9.864162536355E-01  9.982532486791E-01  1.010232287663E+00
  1.022355075115E+00  1.034623336017E+00  1.047038816049E+00  1.059603281841E+00
  1.072318521223E+00  1.085186343478E+00  1.098208579600E+00  1.111387082555E+00
  1.124723727546E+00  1.138220412276E+00  1.151879057224E+00  1.165701605910E+00
  1.179690025181E+00  1.193846305483E+00  1.208172461149E+00  1.222670530683E+00
  1.237342577051E+00  1.252190687976E+00  1.267216976231E+00  1.282423579946E+00
  1.297812662906E+00  1.313386414861E+00  1.329147051839E+00  1.345096816461E+00
  1.361237978258E+00  1.377572833998E+00  1.394103708005E+00  1.410832952502E+00
  1.427762947932E+00  1.444896103307E+00  1.462234856546E+00  1.479781674825E+00
  1.497539054923E+00  1.515509523582E+00  1.533695637865E+00  1.552099985519E+00
  1.570725185346E+00  1.589573887570E+00  1.608648774221E+00  1.627952559511E+00
  1.647487990225E+00  1.667257846108E+00  1.687264940261E+00  1.707512119544E+00
  1.728002264979E+00  1.748738292159E+00  1.769723151665E+00  1.790959829485E+00
  1.812451347438E+00  1.834200763608E+00  1.856211172771E+00  1.878485706844E+00
  1.901027535326E+00  1.923839865750E+00  1.946925944139E+00  1.970289055469E+00
  1.993932524135E+00  2.017859714424E+00  2.042074030997E+00  2.066578919369E+00
  2.091377866402E+00  2.116474400799E+00  2.141872093608E+00  2.167574558731E+00
  2.193585453436E+00  2.219908478877E+00  2.246547380624E+00  2.273505949191E+00
  2.300788020582E+00  2.328397476829E+00  2.356338246551E+00  2.384614305509E+00
  2.413229677175E+00  2.442188433301E+00  2.471494694501E+00  2.501152630835E+00
  2.531166462405E+00  2.561540459954E+00  2.592278945473E+00  2.623386292819E+00
  2.654866928333E+00  2.686725331473E+00  2.718966035451E+00  2.751593627876E+00
  2.784612751411E+00  2.818028104427E+00  2.851844441681E+00  2.886066574981E+00
  2.920699373881E+00  2.955747766367E+00  2.991216739564E+00  3.027111340438E+00
  3.063436676524E+00  3.100197916642E+00  3.137400291642E+00  3.175049095141E+00
  3.213149684283E+00  3.251707480494E+00  3.290727970260E+00  3.330216705903E+00
  3.370179306374E+00  3.410621458051E+00  3.451548915547E+00  3.492967502534E+00
  3.534883112564E+00  3.577301709915E+00  3.620229330434E+00  3.663672082399E+00
  3.707636147388E+00  3.752127781157E+00  3.797153314531E+00  3.842719154305E+00
  3.888831784157E+00  3.935497765566E+00  3.982723738753E+00  4.030516423618E+00
  4.078882620702E+00  4.127829212150E+00  4.177363162696E+00  4.227491520648E+00
  4.278221418896E+00  4.329560075923E+00  4.381514796834E+00  4.434092974396E+00
  4.487302090089E+00  4.541149715170E+00  4.595643511752E+00  4.650791233893E+00
  4.706600728699E+00  4.763079937444E+00  4.820236896693E+00  4.878079739454E+00
  4.936616696327E+00  4.995856096683E+00  5.055806369843E+00  5.116476046281E+00
  5.177873758837E+00  5.240008243943E+00  5.302888342870E+00  5.366523002984E+00
  5.430921279020E+00  5.496092334368E+00  5.562045442381E+00  5.628789987689E+00
  5.696335467542E+00  5.764691493152E+00  5.833867791070E+00  5.903874204563E+00
  5.974720695018E+00  6.046417343358E+00  6.118974351478E+00  6.192402043696E+00
  6.266710868220E+00  6.341911398639E+00  6.418014335423E+00  6.495030507448E+00
  6.572970873537E+00  6.651846524019E+00  6.731668682308E+00  6.812448706495E+00
  6.894198090973E+00  6.976928468065E+00  7.060651609682E+00  7.145379428998E+00
  7.231123982146E+00  7.317897469932E+00  7.405712239571E+00  7.494580786446E+00
  7.584515755883E+00  7.675529944954E+00  7.767636304293E+00  7.860847939945E+00
  7.955178115224E+00  8.050640252607E+00  8.147247935638E+00  8.245014910866E+00
  8.343955089796E+00  8.444082550873E+00  8.545411541484E+00  8.647956479982E+00
  8.751731957742E+00  8.856752741234E+00  8.963033774129E+00  9.070590179419E+00
  9.179437261572E+00  9.289590508711E+00  9.401065594815E+00  9.513878381953E+00
  9.628044922536E+00  9.743581461607E+00  9.860504439146E+00  9.978830492416E+00
  1.009857645832E+01  1.021975937582E+01  1.034239648833E+01  1.046650524619E+01
  1.059210330915E+01  1.071920854886E+01  1.084783905145E+01  1.097801312006E+01
  1.110974927750E+01  1.124306626883E+01  1.137798306406E+01  1.151451886083E+01
  1.165269308716E+01  1.179252540420E+01  1.193403570905E+01  1.207724413756E+01
  1.222217106721E+01  1.236883712002E+01  1.251726316546E+01  1.266747032345E+01
  1.281947996733E+01  1.297331372694E+01  1.312899349166E+01  1.328654141356E+01
  1.344597991052E+01  1.360733166945E+01  1.377061964948E+01  1.393586708527E+01
  1.410309749030E+01  1.427233466018E+01  1.444360267610E+01  1.461692590822E+01
  1.479232901912E+01  1.496983696734E+01  1.514947501095E+01  1.533126871108E+01
  1.551524393562E+01  1.570142686284E+01  1.588984398520E+01  1.608052211302E+01
  1.627348837838E+01  1.646877023892E+01  1.666639548179E+01  1.686639222757E+01
  1.706878893430E+01  1.727361440151E+01  1.748089777433E+01  1.769066854762E+01
  1.790295657019E+01  1.811779204903E+01  1.833520555362E+01  1.855522802026E+01
  1.877789075651E+01  1.900322544559E+01  1.923126415093E+01  1.946203932074E+01
  1.969558379259E+01  1.993193079810E+01  2.017111396768E+01  2.041316733529E+01
  2.065812534332E+01  2.090602284744E+01  2.115689512161E+01  2.141077786307E+01
  2.166770719742E+01  2.192771968379E+01  2.219085232000E+01  2.245714254784E+01
  2.272662825841E+01  2.299934779751E+01  2.327533997108E+01  2.355464405073E+01
  2.383729977934E+01  2.412334737670E+01  2.441282754522E+01  2.470578147576E+01
  2.500225085347E+01  2.530227786371E+01  2.560590519807E+01  2.591317606045E+01
  2.622413417318E+01  2.653882378325E+01  2.685728966865E+01  2.717957714468E+01
  2.750573207041E+01  2.783580085526E+01  2.816983046552E+01  2.850786843111E+01
  2.884996285228E+01  2.919616240651E+01  2.954651635539E+01  2.990107455165E+01
  3.025988744627E+01  3.062300609563E+01  3.099048216877E+01  3.136236795480E+01
  3.173871637026E+01  3.211958096670E+01  3.250501593830E+01  3.289507612956E+01
  3.328981704311E+01  3.368929484763E+01  3.409356638580E+01  3.450268918243E+01
  3.491672145262E+01  3.533572211005E+01  3.575975077537E+01  3.618886778468E+01
  3.662313419809E+01  3.706261180847E+01  3.750736315017E+01  3.795745150798E+01
  3.841294092607E+01  3.887389621718E+01  3.934038297179E+01  3.981246756745E+01
  4.029021717826E+01  4.077369978440E+01  4.126298418181E+01  4.175813999199E+01
  4.225923767190E+01  4.276634852396E+01  4.327954470625E+01  4.379889924272E+01
  4.432448603364E+01
</grid-data>
</grid>
<valence-charge total-charge="15" is-unscreening-charge="yes"
 rescaled-to-z-pseudo="no">
<radfunc>
<data npts="457">
  1.999973102721E+00  2.000802015866E+00  2.003359921705E+00  2.007594581599E+00
  2.013483425154E+00  2.021228784527E+00  2.031103697107E+00  2.042416215580E+00
  2.055142163354E+00  2.069990956123E+00  2.086738820446E+00  2.104955478867E+00
  2.126989218601E+00  2.150022010888E+00  2.177219787569E+00  2.204410950316E+00
  2.235757531730E+00  2.265505405213E+00  2.298987784985E+00  2.336668188094E+00
  2.379066108341E+00  2.416769733536E+00  2.458192935202E+00  2.503695773307E+00
  2.553671541480E+00  2.608549433524E+00  2.668797316688E+00  2.717812073882E+00
  2.770364232898E+00  2.826699687925E+00  2.887079735220E+00  2.951781713584E+00
  3.021099601268E+00  3.095344549318E+00  3.174845326875E+00  3.259948648545E+00
  3.351019347577E+00  3.448440351117E+00  3.517112814977E+00  3.588908419087E+00
  3.663953484850E+00  3.742377469173E+00  3.824312762948E+00  3.909894438753E+00
  3.999259940822E+00  4.092548709590E+00  4.189901732331E+00  4.291461010518E+00
  4.397368933658E+00  4.507767548369E+00  4.622797710503E+00  4.742598107089E+00
  4.867304133866E+00  4.997046613137E+00  5.131950335765E+00  5.272132410178E+00
  5.417700400557E+00  5.568750235720E+00  5.725363869917E+00  5.887606676696E+00
  6.055524557359E+00  6.229140746435E+00  6.408452298114E+00  6.593426239873E+00
  6.783995382788E+00  6.980053782329E+00  7.181451849114E+00  7.284093295996E+00
  7.387991116224E+00  7.493111951929E+00  7.599418678525E+00  7.706870214971E+00
  7.815421330273E+00  7.925022446692E+00  8.035619440156E+00  8.147153438506E+00
  8.259560618224E+00  8.372772000419E+00  8.486713246926E+00  8.601304457450E+00
  8.716459968824E+00  8.832088157511E+00  8.948091246629E+00  9.064365118875E+00
  9.180799136830E+00  9.297275972281E+00  9.413671446288E+00  9.529854381876E+00
  9.645686471332E+00  9.761022160255E+00  9.875708550589E+00  9.989585325027E+00
  1.010248469528E+01  1.021423137682E+01  1.032464259282E+01  1.043352811009E+01
  1.054069030995E+01  1.064592429694E+01  1.074901804849E+01  1.084975260849E+01
  1.094790232797E+01  1.104323515574E+01  1.113551298220E+01  1.122449203910E+01
  1.130992335811E+01  1.139155329076E+01  1.146912409232E+01  1.154237457158E+01
  1.161104080866E+01  1.167485694205E+01  1.173355602622E+01  1.178687096022E+01
  1.183453548731E+01  1.187628526514E+01  1.191185900511E+01  1.194099967886E+01
  1.196345578920E+01  1.197898270158E+01  1.198734403156E+01  1.198831308252E+01
  1.198167432708E+01  1.196722492425E+01  1.194477626360E+01  1.191415552641E+01
  1.187520725271E+01  1.182779490206E+01  1.177180239488E+01  1.170713562013E+01
  1.163372389431E+01  1.155152135604E+01  1.146050827967E+01  1.136069229121E+01
  1.125210946951E+01  1.113482531545E+01  1.100893557259E+01  1.087456688267E+01
  1.073187726082E+01  1.058105637583E+01  1.042232562283E+01  1.025593797707E+01
  1.008217761976E+01  9.901359329119E+00  9.713827632430E+00  9.519955717627E+00
  9.320144105766E+00  9.114819088824E+00  8.904430940186E+00  8.689451908139E+00
  8.470374005459E+00  8.247706610741E+00  8.021973899363E+00  7.793712123883E+00
  7.563466765106E+00  7.331789576107E+00  7.099235542010E+00  6.866359778424E+00
  6.633714391158E+00  6.401845319126E+00  6.171289181547E+00  5.942570149527E+00
  5.716196861191E+00  5.492659398845E+00  5.272426346282E+00  5.055941944564E+00
  4.843623365385E+00  4.635858122714E+00  4.433001645591E+00  4.235375037890E+00
  4.043263054189E+00  3.856912324533E+00  3.676529864373E+00  3.502281909013E+00
  3.334293113986E+00  3.172646163503E+00  3.017381827939E+00  2.868499507990E+00
  2.725958297233E+00  2.589678586324E+00  2.459544220861E+00  2.335406667297E+00
  2.217095393094E+00  2.104431510657E+00  1.997229817001E+00  1.895300037121E+00
  1.798448415118E+00  1.706479027835E+00  1.619195008907E+00  1.536399662402E+00
  1.457897469512E+00  1.383494991356E+00  1.313001671357E+00  1.246230541172E+00
  1.182998834506E+00  1.123128513545E+00  1.066446712900E+00  1.012786106202E+00
  9.619852005550E-01  9.138885641115E-01  8.683469920299E-01  8.252176160155E-01
  7.843639625461E-01  7.456559647503E-01  7.089699327588E-01  6.741884870511E-01
  6.412004593930E-01  6.099007653724E-01  5.801902524767E-01  5.519755276284E-01
  5.251687674122E-01  4.996875143396E-01  4.754544621106E-01  4.523972326166E-01
  4.304481471925E-01  4.095439943988E-01  3.896257963914E-01  3.706385757230E-01
  3.525311242091E-01  3.352557753014E-01  3.187681812145E-01  3.030270958815E-01
  2.879941646420E-01  2.736337214106E-01  2.599125939296E-01  2.467999175750E-01
  2.342669580608E-01  2.222869432769E-01  2.108349043938E-01  1.998875262778E-01
  1.894230071804E-01  1.794209275952E-01  1.698621281166E-01  1.607285960805E-01
  1.520033607255E-01  1.436703965772E-01  1.357145347287E-01  1.281213816688E-01
  1.208772452943E-01  1.139690677310E-01  1.073843645828E-01  1.011111702273E-01
  9.513798877885E-02  8.945375034489E-02  8.404777221017E-02  7.890972459483E-02
  7.402960064287E-02  6.939769031184E-02  6.500455784796E-02  6.084102254482E-02
  5.689814249780E-02  5.316720107939E-02  4.963969587331E-02  4.630732981726E-02
  4.316200431557E-02  4.019581408608E-02  3.740104353200E-02  3.477016441996E-02
  3.229583466400E-02  2.997089802210E-02  2.778838452127E-02  2.574151143691E-02
  2.382368466280E-02  2.202850031985E-02  2.034974646372E-02  1.878140476504E-02
  1.731765204989E-02  1.595286160264E-02  1.468160414831E-02  1.349864844647E-02
  1.239896144350E-02  1.137770794439E-02  1.043024977879E-02  9.552144448727E-03
  8.739143257037E-03  7.987188925928E-03  7.292412724130E-03  6.651131128785E-03
  6.059842054609E-03  5.515220687805E-03  5.014114965953E-03  4.553540747596E-03
  4.130676716644E-03  3.742859067120E-03  3.387576013298E-03  3.062462168989E-03
  2.765292837895E-03  2.493978254459E-03  2.246557811817E-03  2.021194310308E-03
  1.816168256588E-03  1.629872239948E-03  1.460805408898E-03  1.307568067621E-03
  1.168856408559E-03  1.043457394206E-03  9.302437982799E-04  8.281694137698E-04
  7.362644326482E-04  6.536310010117E-04  5.794389500875E-04  5.129217018098E-04
  4.533723512107E-04  4.001399192701E-04  3.526257742480E-04  3.102802187817E-04
  2.725992381208E-04  2.391214053360E-04  2.094249393070E-04  1.831249111964E-04
  1.598705951499E-04  1.393429590144E-04  1.212522909294E-04  1.053359577108E-04
  9.135629099272E-05  7.909859712757E-05  6.836928685827E-05  5.899412077056E-05
  5.081656651171E-05  4.369626372647E-05  3.750759261717E-05  3.213834198623E-05
  2.748847257193E-05  2.346897144547E-05  2.000079320427E-05  1.701388367557E-05
  1.444628183903E-05  1.224329568874E-05  1.035674778571E-05  8.744286300704E-06
  7.368757416042E-06  6.197635041139E-06  5.202503900225E-06  4.358592170022E-06
  3.644349978240E-06  3.041070218893E-06  2.532548295434E-06  2.104777565497E-06
  1.745677429566E-06  1.444851178040E-06  1.193370885238E-06  9.835868128280E-07
  8.089589576646E-07  6.639085484399E-07  5.436874607433E-07  4.442636800219E-07
  3.622210956409E-07  2.946720560832E-07  2.391812547577E-07  1.936996475415E-07
  1.565072268139E-07  1.261635922523E-07  1.014653660515E-07  8.140959958534E-08
  6.516241005261E-08  5.203216956607E-08  4.144664576420E-08  3.293356269273E-08
  2.610411378793E-08  2.063901569316E-08  1.627674276046E-08  1.280362784313E-08
  1.004555578162E-08  7.861012228526E-09  6.135282538718E-09  4.775623745246E-09
  3.707257507575E-09  2.870053695789E-09  2.215793279035E-09  1.705915714706E-09
  1.309670359764E-09  1.002603798486E-09  7.653256312638E-10  5.825044056824E-10
  4.420531823300E-10  3.344708834630E-10  2.523112243549E-10  1.897558101573E-10
  1.422720151516E-10  1.063396520836E-10  7.923327969615E-11  5.884936782165E-11
  4.356951215173E-11  3.215252639596E-11  2.364959088766E-11  1.733774931550E-11
  1.266795811618E-11  9.224639387864E-12  6.694296193101E-12  4.841242681451E-12
  3.488900680831E-12  2.505436142695E-12  1.792767178474E-12  1.278182123039E-12
  9.079708210454E-13  6.426029326820E-13  4.401289028736E-13  3.092496181192E-13
  2.164567012077E-13  1.028111713442E-13  7.088483978882E-14  4.866893192878E-14
  3.327468748368E-14  2.265259292296E-14  1.535470223939E-14  1.036243748484E-14
  6.962363926493E-15  4.656962442817E-15  3.100820539079E-15  2.055203293477E-15
  1.355855131492E-15  8.902826986744E-16  5.818006750877E-16  3.783792848123E-16
  2.448850233132E-16  1.577078940129E-16  1.010590597078E-16  6.443200583986E-17
  4.087015319741E-17  2.579065836190E-17  1.618985791720E-17  1.010929428723E-17
  6.278680052102E-18  3.878445105348E-18  2.382650856714E-18  1.455619842966E-18
  8.842830938307E-19  5.341473962027E-19  3.207950351622E-19  1.915405902581E-19
  1.136920858444E-19  6.708185734577E-20  3.934179623663E-20  2.293221504391E-20
  1.328460401360E-20  7.647679752234E-21  4.374783227368E-21  2.486543390373E-21
  1.404153839524E-21  7.877321260178E-22  4.389886361236E-22  2.429987472427E-22
  1.335966342619E-22  7.294436555013E-23  3.955095709777E-23  0.000000000000E+00
  0.000000000000E+00  0.000000000000E+00  0.000000000000E+00  0.000000000000E+00
  0.000000000000E+00  0.000000000000E+00  0.000000000000E+00  0.000000000000E+00
  0.000000000000E+00  0.000000000000E+00  0.000000000000E+00  0.000000000000E+00
  0.000000000000E+00
</data>
</radfunc>
</valence-charge>
<pseudocore-charge matching-radius="0.907395523045"
 number-of-continuous-derivatives="4">
<annotation model-charge-form="Teter function with specified parameters" />
<radfunc>
<data npts="290">
  4.808041779599E+01  4.807819222466E+01  4.807132467553E+01  4.805995619076E+01
  4.804414864296E+01  4.802336080029E+01  4.799686267032E+01  4.796651409084E+01
  4.793238278132E+01  4.789257011538E+01  4.784768127938E+01  4.779887436344E+01
  4.773986636664E+01  4.767821279267E+01  4.760544953779E+01  4.753274578561E+01
  4.744898252340E+01  4.736954140195E+01  4.728018495709E+01  4.717969688653E+01
  4.706671740454E+01  4.696632522810E+01  4.685611239234E+01  4.673514368158E+01
  4.660240016702E+01  4.645677285025E+01  4.629705607588E+01  4.616723887976E+01
  4.602816961272E+01  4.587921909036E+01  4.571971998527E+01  4.554896524666E+01
  4.536620657994E+01  4.517065301459E+01  4.496146959347E+01  4.473777622242E+01
  4.449864672534E+01  4.424310815675E+01  4.406313115695E+01  4.387509493975E+01
  4.367867634291E+01  4.347354303501E+01  4.325935366324E+01  4.303575805816E+01
  4.280239750196E+01  4.255890506687E+01  4.230490603126E+01  4.204001838120E+01
  4.176385340566E+01  4.147601639454E+01  4.117610744854E+01  4.086372241095E+01
  4.053845393161E+01  4.019989267375E+01  3.984762867494E+01  3.948125287360E+01
  3.910035881274E+01  3.870454453295E+01  3.829341466648E+01  3.786658274428E+01
  3.742367372747E+01  3.696432677448E+01  3.648819825402E+01  3.599496501330E+01
  3.548432790957E+01  3.495601561125E+01  3.440978867284E+01  3.412989217074E+01
  3.384544388545E+01  3.355642483656E+01  3.326281890126E+01  3.296461297350E+01
  3.266179712702E+01  3.235436478230E+01  3.204231287714E+01  3.172564204089E+01
  3.140435677188E+01  3.107846561809E+01  3.074798136062E+01  3.041292119981E+01
  3.007330694358E+01  2.972916519773E+01  2.938052755787E+01  2.902743080232E+01
  2.866991708588E+01  2.830803413365E+01  2.794183543455E+01  2.757138043388E+01
  2.719673472435E+01  2.681797023481E+01  2.643516541608E+01  2.604840542294E+01
  2.565778229170E+01  2.526339511218E+01  2.486535019345E+01  2.446376122218E+01
  2.405874941258E+01  2.365044364698E+01  2.323898060574E+01  2.282450488539E+01
  2.240716910387E+01  2.198713399131E+01  2.156456846534E+01  2.113964968934E+01
  2.071256311230E+01  2.028350248886E+01  1.985266987800E+01  1.942027561898E+01
  1.898653828281E+01  1.855168459799E+01  1.811594934878E+01  1.767957524449E+01
  1.724281275839E+01  1.680591993461E+01  1.636916216168E+01  1.593281191119E+01
  1.549714844034E+01  1.506245745702E+01  1.462903074632E+01  1.419716575734E+01
  1.376716514934E+01  1.333933629658E+01  1.291399075101E+01  1.249144366255E+01
  1.207201315660E+01  1.165601966880E+01  1.124378523736E+01  1.083563275327E+01
  1.043188516943E+01  1.003286466964E+01  9.638891798948E+00  9.250284557219E+00
  8.867357458010E+00  8.490420555429E+00  8.119778441908E+00  7.755729220319E+00
  7.398563454302E+00  7.048563101095E+00  6.706000431620E+00  6.371136943040E+00
  6.044222269435E+00  5.725493096704E+00  5.415172088224E+00  5.113466828190E+00
  4.820568789979E+00  4.536652337184E+00  4.261873765318E+00  3.996370392420E+00
  3.740259707004E+00  3.493638581945E+00  3.256582562952E+00  3.029145240269E+00
  2.811357712127E+00  2.603228148306E+00  2.404741461807E+00  2.215859096271E+00
  2.036518936203E+00  1.866635346427E+00  1.706099346419E+00  1.554778924216E+00
  1.412519493617E+00  1.279144497173E+00  1.154456156206E+00  1.038236367696E+00
  9.302477463269E-01  8.302348084379E-01  7.379252928877E-01  6.530316121292E-01
  5.752524249949E-01  5.042743208978E-01  4.397736033653E-01  3.814181590800E-01
  3.288693969308E-01  2.817842400194E-01  2.398171521515E-01  2.026221791125E-01
  1.698549840143E-01  1.411748552467E-01  1.162466650999E-01  9.474275698958E-02
  7.634473942111E-02  6.074516542208E-02  4.764907714670E-02  3.677539673879E-02
  2.785814632382E-02  2.064748217998E-02  1.491053069453E-02  1.043201661537E-02
  7.014677317662E-03  4.479460268843E-03  2.665504529616E-03  1.429910898203E-03
  6.473091076810E-04  2.092342294849E-04  2.332802347635E-05  1.238430584790E-05
  1.132603801823E-04  2.756790969763E-04  4.609480824184E-04  6.406240284671E-04
  7.951505981063E-04  9.124984251547E-04  9.868348519620E-04  1.017249450184E-03
  1.006559035805E-03  9.602128740042E-04  8.853151549264E-04  7.897777175413E-04
  6.816115399879E-04  5.683608560578E-04  4.566790692521E-04  3.520410973132E-04
  2.585825714324E-04  1.790526080744E-04  1.148638235805E-04  6.622100296940E-05
  3.230846140666E-05  1.151570540238E-05  1.681520313730E-06  3.380410350496E-07
  4.938613921135E-06  1.305619300906E-05  2.254245445757E-05  3.164154996137E-05
  3.905622310439E-05  4.396764713386E-05  4.601358370727E-05  4.523211141086E-05
  4.198007345764E-05  3.683644365430E-05  3.050097015520E-05  2.369775813004E-05
  1.709199374610E-05  1.122595270673E-05  6.477985841809E-06  3.045572074363E-06
  9.510254628128E-07  6.627417537991E-08  1.514943565853E-07  9.014223488406E-07
  1.992952887123E-06  3.128145524520E-06  4.067912631347E-06  4.653284827327E-06
  4.813026402642E-06  4.558260542818E-06  3.966422221812E-06  3.158080414533E-06
  2.270817887272E-06  1.434365389403E-06  7.505878640994E-07  2.808309240853E-07
  4.174429151696E-08  0.000000000000E+00  0.000000000000E+00  0.000000000000E+00
  0.000000000000E+00  0.000000000000E+00  0.000000000000E+00  0.000000000000E+00
  0.000000000000E+00  0.000000000000E+00  0.000000000000E+00  0.000000000000E+00
  0.000000000000E+00  0.000000000000E+00  0.000000000000E+00  0.000000000000E+00
  0.000000000000E+00  0.000000000000E+00  0.000000000000E+00  0.000000000000E+00
  0.000000000000E+00  0.000000000000E+00  0.000000000000E+00  0.000000000000E+00
  0.000000000000E+00  0.000000000000E+00  0.000000000000E+00  0.000000000000E+00
  0.000000000000E+00  0.000000000000E+00  0.000000000000E+00  0.000000000000E+00
  0.000000000000E+00  0.000000000000E+00  0.000000000000E+00  0.000000000000E+00
  0.000000000000E+00  0.000000000000E+00
</data>
</radfunc>
</pseudocore-charge>
<semilocal-potentials set="scalar_relativistic">
<slps n="5" l="s" rc="1.60864877422">
<radfunc>
<data npts="290">
 -6.891716572111E+00 -6.893044554276E+00 -6.897141184919E+00 -6.903918829477E+00
 -6.913334910322E+00 -6.925703390505E+00 -6.941446045799E+00 -6.959444166536E+00
 -6.979644774012E+00 -7.003153409543E+00 -7.029589298367E+00 -7.058248585225E+00
 -7.092781509265E+00 -7.128727210562E+00 -7.170972993018E+00 -7.212993755881E+00
 -7.261172061736E+00 -7.306633872827E+00 -7.357503609949E+00 -7.414376105451E+00
 -7.477899044992E+00 -7.533975557218E+00 -7.595141079778E+00 -7.661802323270E+00
 -7.734387481532E+00 -7.813345050771E+00 -7.899142033863E+00 -7.968268172221E+00
 -8.041721505764E+00 -8.119713656982E+00 -8.202458077529E+00 -8.290168651989E+00
 -8.383058075982E+00 -8.481335992041E+00 -8.585206867979E+00 -8.694867604326E+00
 -8.810504860025E+00 -8.932292088889E+00 -9.016978536287E+00 -9.104510221054E+00
 -9.194924428117E+00 -9.288253474132E+00 -9.384524161576E+00 -9.483757210993E+00
 -9.585966673011E+00 -9.691159322115E+00 -9.799334034455E+00 -9.910481152319E+00
 -1.002458183825E+01 -1.014160742207E+01 -1.026151874449E+01 -1.038426550104E+01
 -1.050978559075E+01 -1.063800447370E+01 -1.076883454227E+01 -1.090217451069E+01
 -1.103790882785E+01 -1.117590711822E+01 -1.131602365574E+01 -1.145809687563E+01
 -1.160194892873E+01 -1.174738528286E+01 -1.189419437571E+01 -1.204214732307E+01
 -1.219099768630E+01 -1.234048130255E+01 -1.249031618066E+01 -1.256527233562E+01
 -1.264020246592E+01 -1.271506630442E+01 -1.278982247606E+01 -1.286442850300E+01
 -1.293884081107E+01 -1.301301473738E+01 -1.308690453919E+01 -1.316046340407E+01
 -1.323364346134E+01 -1.330639579475E+01 -1.337867045663E+01 -1.345041648322E+01
 -1.352158191155E+01 -1.359211379765E+01 -1.366195823619E+01 -1.373106038166E+01
 -1.379936447105E+01 -1.386681384809E+01 -1.393335098914E+01 -1.399891753067E+01
 -1.406345429857E+01 -1.412690133914E+01 -1.418919795199E+01 -1.425028272485E+01
 -1.431009357028E+01 -1.436856776459E+01 -1.442564198871E+01 -1.448125237144E+01
 -1.453533453486E+01 -1.458782364219E+01 -1.463865444805E+01 -1.468776135126E+01
 -1.473507845020E+01 -1.478053960081E+01 -1.482407847736E+01 -1.486562863577E+01
 -1.490512357989E+01 -1.494249683031E+01 -1.497768199607E+01 -1.501061284882E+01
 -1.504122339974E+01 -1.506944797872E+01 -1.509522131587E+01 -1.511847862505E+01
 -1.513915568913E+01 -1.515718894662E+01 -1.517251557932E+01 -1.518507360050E+01
 -1.519480194301E+01 -1.520164054679E+01 -1.520553044498E+01 -1.520641384799E+01
 -1.520423422460E+01 -1.519893637925E+01 -1.519046652457E+01 -1.517877234818E+01
 -1.516380307277E+01 -1.514550950855E+01 -1.512384409695E+01 -1.509876094495E+01
 -1.507021584907E+01 -1.503816630853E+01 -1.500257152721E+01 -1.496339240417E+01
 -1.492059151313E+01 -1.487413307139E+01 -1.482398289937E+01 -1.477010837254E+01
 -1.471247836800E+01 -1.465106320901E+01 -1.458583461142E+01 -1.451676563719E+01
 -1.444383066110E+01 -1.436700535835E+01 -1.428626672175E+01 -1.420159311923E+01
 -1.411296440386E+01 -1.402036209059E+01 -1.392376961591E+01 -1.382317269908E+01
 -1.371855982580E+01 -1.360992287785E+01 -1.349725793490E+01 -1.338056627770E+01