<?xml version="1.0" encoding="UTF-8" ?>
<psml version="1.1" energy_unit="hartree" length_unit="bohr"
 uuid="9afabe60-4706-11e8-6443-c1297fffeb9c"
 xmlns="http://esl.cecam.org/PSML/ns/1.1">
<provenance creator="ONCVPSP-3.3.0+psml-3.3.0-73 (fully-relativistic)"
 date="2018-04-23">
<annotation action="semilocal-pseudopotential-generation"
 action-cont="projectors-generation" />
<input-file name="oncvpsp-input">
<![CDATA[# atsym z nc nv iexc psfile
Ag 47 6 4 4 both
# n l f
1 0 2.0
2 0 2.0
2 1 6.0
3 0 2.0
3 1 6.0
3 2 10.0
4 0 2.0
4 1 6.0
4 2 10.0
5 0 1.0
# lmax
2
# l rc ep ncon nbas qcut
0 1.4 0.0 4 8 9.2
1 1.45 0.0 4 8 9.2
2 1.6 0.0 4 8 9.2
# lloc lpopt rc5 dvloc0
4 5 1.4 0.0
# l nproj debl
0 2 1.0
1 2 1.0
2 2 1.0
# icmod fcfact
3 7.0 1.24
# epsh1 epsh2 depsh
-12.0 12.0 0.02
# rlmax drl
6.0 0.01
 0
]]>
</input-file>
</provenance>
<pseudo-atom-spec atomic-label="Ag" atomic-number="47" z-pseudo="19"
 flavor="Hamann&apos;s oncvpsp" relativity="dirac" spin-dft="no"
 core-corrections="yes">
<annotation pseudo-energy="-147.288110378" />
<exchange-correlation>
<annotation oncvpsp-xc-code="4" oncvpsp-xc-type="GGA -- Perdew-Burke-Ernzerhof" />
<libxc-info number-of-functionals="2">
<functional name="Perdew, Burke &amp; Ernzerhof (GGA)" type="exchange" id="101" />
<functional name="Perdew, Burke &amp; Ernzerhof (GGA)" type="correlation"
 id="130" />
</libxc-info>
</exchange-correlation>
<valence-configuration total-valence-charge="19">
<shell n="4" l="s" occupation="2" />
<shell n="4" l="p" occupation="6" />
<shell n="4" l="d" occupation="10" />
<shell n="5" l="s" occupation="1" />
</valence-configuration>
</pseudo-atom-spec>
<grid npts="458">
<annotation type="sampled from oncvpsp log grid"
 recipe="r(i:1..N) = r1*exp(a*(i-1)) + r=0; resampled"
 recipe-cont="r1: scale; a: step" scale="0.106382978723E-04"
 step="0.119285708653E-01" delta="0.500000000000E-02" rmax="44.4188311520" />
<grid-data>
  0.000000000000E+00  5.012063889261E-03  1.013133873758E-02  1.519862365413E-02
  2.023655404941E-02  2.538436470997E-02  3.072235470001E-02  3.587576424974E-02
  4.090597974922E-02  4.608843105027E-02  5.131171573174E-02  5.644956981122E-02
  6.210187841956E-02  6.751003360562E-02  7.251893194389E-02  7.789946485591E-02
  8.367920572152E-02  8.882191079441E-02  9.428067306739E-02  1.000749165892E-01
  1.062252591596E-01  1.114165866549E-01  1.168616191670E-01  1.225727554967E-01
  1.285630003858E-01  1.348459941300E-01  1.414360436389E-01  1.465890859822E-01
  1.519298728687E-01  1.574652445318E-01  1.632022904206E-01  1.691483582787E-01
  1.753110635559E-01  1.816982991609E-01  1.883182455706E-01  1.951793813071E-01
  2.022904937969E-01  2.096606906249E-01  2.147227383393E-01  2.199070041338E-01
  2.252164388416E-01  2.306540645410E-01  2.362229762752E-01  2.419263438144E-01
  2.477674134595E-01  2.537495098901E-01  2.598760380568E-01  2.661504851197E-01
  2.725764224324E-01  2.791575075756E-01  2.858974864385E-01  2.928001953511E-01
  2.998695632677E-01  3.071096140032E-01  3.145244685237E-01  3.221183472917E-01
  3.298955726687E-01  3.378605713752E-01  3.460178770105E-01  3.543721326331E-01
  3.629280934034E-01  3.716906292905E-01  3.806647278441E-01  3.898554970332E-01
  3.992681681535E-01  4.089080988054E-01  4.187807759430E-01  4.238061452543E-01
  4.288918189973E-01  4.340385208253E-01  4.392469830752E-01  4.445179468721E-01
  4.498521622346E-01  4.552503881814E-01  4.607133928396E-01  4.662419535537E-01
  4.718368569963E-01  4.774988992803E-01  4.832288860716E-01  4.890276327045E-01
  4.948959642969E-01  5.008347158685E-01  5.068447324589E-01  5.129268692484E-01
  5.190819916794E-01  5.253109755796E-01  5.316147072865E-01  5.379940837739E-01
  5.444500127792E-01  5.509834129326E-01  5.575952138878E-01  5.642863564544E-01
  5.710577927319E-01  5.779104862447E-01  5.848454120796E-01  5.918635570246E-01
  5.989659197089E-01  6.061535107454E-01  6.134273528743E-01  6.207884811088E-01
  6.282379428821E-01  6.357767981967E-01  6.434061197750E-01  6.511269932123E-01
  6.589405171309E-01  6.668478033365E-01  6.748499769765E-01  6.829481767002E-01
  6.911435548206E-01  6.994372774785E-01  7.078305248082E-01  7.163244911059E-01
  7.249203849992E-01  7.336194296192E-01  7.424228627746E-01  7.513319371279E-01
  7.603479203734E-01  7.694720954179E-01  7.787057605629E-01  7.880502296897E-01
  7.975068324460E-01  8.070769144353E-01  8.167618374085E-01  8.265629794574E-01
  8.364817352109E-01  8.465195160335E-01  8.566777502259E-01  8.669578832286E-01
  8.773613778273E-01  8.878897143612E-01  8.985443909336E-01  9.093269236248E-01
  9.202388467083E-01  9.312817128688E-01  9.424570934232E-01  9.537665785443E-01
  9.652117774868E-01  9.767943188166E-01  9.885158506424E-01  1.000378040850E+00
  1.012382577340E+00  1.024531168268E+00  1.036825542288E+00  1.049267448795E+00
  1.061858658181E+00  1.074600962079E+00  1.087496173624E+00  1.100546127707E+00
  1.113752681240E+00  1.127117713415E+00  1.140643125976E+00  1.154330843487E+00
  1.168182813609E+00  1.182201007372E+00  1.196387419461E+00  1.210744068494E+00
  1.225272997316E+00  1.239976273284E+00  1.254855988564E+00  1.269914260426E+00
  1.285153231551E+00  1.300575070330E+00  1.316181971174E+00  1.331976154828E+00
  1.347959868686E+00  1.364135387110E+00  1.380505011756E+00  1.397071071897E+00
  1.413835924759E+00  1.430801955857E+00  1.447971579327E+00  1.465347238279E+00
  1.482931405138E+00  1.500726582000E+00  1.518735300984E+00  1.536960124596E+00
  1.555403646091E+00  1.574068489844E+00  1.592957311722E+00  1.612072799463E+00
  1.631417673056E+00  1.650994685133E+00  1.670806621354E+00  1.690856300811E+00
  1.711146576420E+00  1.731680335337E+00  1.752460499362E+00  1.773490025354E+00
  1.794771905658E+00  1.816309168526E+00  1.838104878548E+00  1.860162137091E+00
  1.882484082736E+00  1.905073891729E+00  1.927934778430E+00  1.951069995771E+00
  1.974482835720E+00  1.998176629749E+00  2.022154749306E+00  2.046420606297E+00
  2.070977653573E+00  2.095829385416E+00  2.120979338041E+00  2.146431090097E+00
  2.172188263178E+00  2.198254522336E+00  2.224633576605E+00  2.251329179524E+00
  2.278345129678E+00  2.305685271234E+00  2.333353494489E+00  2.361353736423E+00
  2.389689981260E+00  2.418366261035E+00  2.447386656167E+00  2.476755296041E+00
  2.506476359594E+00  2.536554075909E+00  2.566992724820E+00  2.597796637518E+00
  2.628970197168E+00  2.660517839534E+00  2.692444053609E+00  2.724753382252E+00
  2.757450422839E+00  2.790539827913E+00  2.824026305848E+00  2.857914621518E+00
  2.892209596976E+00  2.926916112140E+00  2.962039105486E+00  2.997583574751E+00
  3.033554577648E+00  3.069957232580E+00  3.106796719371E+00  3.144078280004E+00
  3.181807219364E+00  3.219988905996E+00  3.258628772868E+00  3.297732318142E+00
  3.337305105960E+00  3.377352767232E+00  3.417881000438E+00  3.458895572444E+00
  3.500402319313E+00  3.542407147145E+00  3.584916032911E+00  3.627935025305E+00
  3.671470245609E+00  3.715527888556E+00  3.760114223219E+00  3.805235593898E+00
  3.850898421025E+00  3.897109202077E+00  3.943874512502E+00  3.991201006652E+00
  4.039095418732E+00  4.087564563756E+00  4.136615338521E+00  4.186254722584E+00
  4.236489779255E+00  4.287327656606E+00  4.338775588485E+00  4.390840895547E+00
  4.443530986293E+00  4.496853358129E+00  4.550815598426E+00  4.605425385608E+00
  4.660690490235E+00  4.716618776118E+00  4.773218201431E+00  4.830496819848E+00
  4.888462781686E+00  4.947124335067E+00  5.006489827088E+00  5.066567705013E+00
  5.127366517473E+00  5.188894915682E+00  5.251161654671E+00  5.314175594527E+00
  5.377945701661E+00  5.442481050081E+00  5.507790822682E+00  5.573884312554E+00
  5.640770924305E+00  5.708460175396E+00  5.776961697501E+00  5.846285237871E+00
  5.916440660726E+00  5.987437948654E+00  6.059287204038E+00  6.131998650487E+00
  6.205582634292E+00  6.280049625904E+00  6.355410221415E+00  6.431675144072E+00
  6.508855245801E+00  6.586961508750E+00  6.666005046855E+00  6.745997107417E+00
  6.826949072706E+00  6.908872461579E+00  6.991778931118E+00  7.075680278291E+00
  7.160588441631E+00  7.246515502930E+00  7.333473688966E+00  7.421475373233E+00
  7.510533077712E+00  7.600659474644E+00  7.691867388340E+00  7.784169797000E+00
  7.877579834564E+00  7.972110792579E+00  8.067776122090E+00  8.164589435555E+00
  8.262564508782E+00  8.361715282887E+00  8.462055866282E+00  8.563600536677E+00
  8.666363743117E+00  8.770360108035E+00  8.875604429331E+00  8.982111682483E+00
  9.089897022673E+00  9.198975786945E+00  9.309363496388E+00  9.421075858345E+00
  9.534128768645E+00  9.648538313869E+00  9.764320773635E+00  9.881492622919E+00
  1.000007053439E+01  1.012007138081E+01  1.024151223738E+01  1.036441038422E+01
  1.048878330884E+01  1.061464870854E+01  1.074202449304E+01  1.087092878696E+01
  1.100137993240E+01  1.113339649159E+01  1.126699724949E+01  1.140220121649E+01
  1.153902763108E+01  1.167749596266E+01  1.181762591421E+01  1.195943742518E+01
  1.210295067428E+01  1.224818608237E+01  1.239516431536E+01  1.254390628715E+01
  1.269443316259E+01  1.284676636054E+01  1.300092755687E+01  1.315693868755E+01
  1.331482195180E+01  1.347459981522E+01  1.363629501301E+01  1.379993055316E+01
  1.396552971980E+01  1.413311607644E+01  1.430271346936E+01  1.447434603099E+01
  1.464803818336E+01  1.482381464156E+01  1.500170041726E+01  1.518172082227E+01
  1.536390147213E+01  1.554826828980E+01  1.573484750928E+01  1.592366567939E+01
  1.611474966754E+01  1.630812666355E+01  1.650382418351E+01  1.670187007371E+01
  1.690229251460E+01  1.710512002477E+01  1.731038146507E+01  1.751810604265E+01
  1.772832331516E+01  1.794106319495E+01  1.815635595329E+01  1.837423222473E+01
  1.859472301142E+01  1.881785968756E+01  1.904367400381E+01  1.927219809186E+01
  1.950346446896E+01  1.973750604259E+01  1.997435611510E+01  2.021404838848E+01
  2.045661696914E+01  2.070209637277E+01  2.095052152924E+01  2.120192778759E+01
  2.145635092104E+01  2.171382713210E+01  2.197439305768E+01  2.223808577437E+01
  2.250494280367E+01  2.277500211731E+01  2.304830214272E+01  2.332488176843E+01
  2.360478034965E+01  2.388803771385E+01  2.417469416641E+01  2.446479049641E+01
  2.475836798237E+01  2.505546839816E+01  2.535613401893E+01  2.566040762716E+01
  2.596833251869E+01  2.627995250891E+01  2.659531193902E+01  2.691445568229E+01
  2.723742915047E+01  2.756427830028E+01  2.789504963988E+01  2.822979023556E+01
  2.856854771839E+01  2.891137029101E+01  2.925830673450E+01  2.960940641532E+01
  2.996471929230E+01  3.032429592381E+01  3.068818747489E+01  3.105644572459E+01
  3.142912307329E+01  3.180627255017E+01  3.218794782077E+01  3.257420319462E+01
  3.296509363295E+01  3.336067475655E+01  3.376100285363E+01  3.416613488787E+01
  3.457612850652E+01  3.499104204860E+01  3.541093455319E+01  3.583586576782E+01
  3.626589615704E+01  3.670108691092E+01  3.714149995385E+01  3.758719795330E+01
  3.803824432874E+01  3.849470326068E+01  3.895663969981E+01  3.942411937621E+01
  3.989720880872E+01  4.037597531443E+01  4.086048701820E+01  4.135081286242E+01
  4.184702261677E+01  4.234918688817E+01  4.285737713083E+01  4.337166565640E+01
  4.389212564428E+01  4.441883115201E+01
</grid-data>
</grid>
<valence-charge total-charge="19" is-unscreening-charge="yes"
 rescaled-to-z-pseudo="no">
<radfunc>
<data npts="458">
  2.148309974082E+00  2.150829596467E+00  2.158605447018E+00  2.171480651612E+00
  2.189389714690E+00  2.212952588474E+00  2.243006765619E+00  2.277453794307E+00
  2.316226962914E+00  2.361497440482E+00  2.412595466776E+00  2.468219737855E+00
  2.535561200992E+00  2.606027399127E+00  2.676557977282E+00  2.757967160052E+00
  2.851934209798E+00  2.941222302214E+00  3.041849002896E+00  3.155252746752E+00
  3.283052555356E+00  3.396874001735E+00  3.522105416213E+00  3.659882774281E+00
  3.811451524091E+00  3.978175758304E+00  4.161547664515E+00  4.310976632448E+00
  4.471425121754E+00  4.643683242837E+00  4.828591754813E+00  5.027043811850E+00
  5.239986376490E+00  5.468421178021E+00  5.713405066794E+00  5.976049583624E+00
  6.257519526382E+00  6.559030253376E+00  6.771792478175E+00  6.994405663013E+00
  7.227260746890E+00  7.470754266859E+00  7.725286794120E+00  7.991261071588E+00
  8.269079816581E+00  8.559143149396E+00  8.861845605759E+00  9.177572688411E+00
  9.506696910675E+00  9.849573282765E+00  1.020653419001E+01  1.057788361129E+01
  1.096389062602E+01  1.136478215916E+01  1.178073491630E+01  1.221186646532E+01
  1.265822542748E+01  1.311978074992E+01  1.359641004341E+01  1.408788698461E+01
  1.459386780151E+01  1.511387688438E+01  1.564729159313E+01  1.619332636641E+01
  1.675101627702E+01  1.731920022456E+01  1.789650400804E+01  1.818808400018E+01
  1.848132357946E+01  1.877598366703E+01  1.907180884323E+01  1.936852690248E+01
  1.966584843547E+01  1.996346644353E+01  2.026105599011E+01  2.055827389463E+01
  2.085475847427E+01  2.115012933965E+01  2.144398725043E+01  2.173591403715E+01
  2.202547259605E+01  2.231220696349E+01  2.259564247691E+01  2.287528602954E+01
  2.315062642575E+01  2.342113484431E+01  2.368626541670E+01  2.394545592727E+01
  2.419812864221E+01  2.444369127388E+01  2.468153808646E+01  2.491105114892E+01
  2.513160174024E+01  2.534255191152E+01  2.554325620865E+01  2.573306355824E+01
  2.591131931874E+01  2.607736749716E+01  2.623055313082E+01  2.637022483193E+01
  2.649573749117E+01  2.660645513510E+01  2.670175392988E+01  2.678102532228E+01
  2.684367930677E+01  2.688914780512E+01  2.691688814317E+01  2.692638660672E+01
  2.691716205641E+01  2.688876957917E+01  2.684080415142E+01  2.677290428692E+01
  2.668475564034E+01  2.657609453517E+01  2.644671138318E+01  2.629645396069E+01
  2.612523050591E+01  2.593301260020E+01  2.571983779587E+01  2.548581195244E+01
  2.523111124389E+01  2.495598379985E+01  2.466075094496E+01  2.434580800262E+01
  2.401162463141E+01  2.365874466571E+01  2.328778543559E+01  2.289943654527E+01
  2.249445809416E+01  2.207367833011E+01  2.163799073029E+01  2.118835051145E+01
  2.072577057839E+01  2.025131692619E+01  1.976610351967E+01  1.927128668030E+01
  1.876805901905E+01  1.825764296015E+01  1.774128390855E+01  1.722024311978E+01
  1.669579033745E+01  1.616919626865E+01  1.564172497203E+01  1.511462623687E+01
  1.458912803366E+01  1.406642911812E+01  1.354769187017E+01  1.303403544831E+01
  1.252652933675E+01  1.202618735887E+01  1.153396222493E+01  1.105074067574E+01
  1.057733927581E+01  1.011450090144E+01  9.662891959099E+00  9.223100359968E+00
  8.795634265384E+00  8.380921607561E+00  7.979310378907E+00  7.591069672695E+00
  7.216391447534E+00  6.855392978340E+00  6.508119947436E+00  6.174550121167E+00
  5.854597550051E+00  5.548117224131E+00  5.254910109847E+00  4.974728490465E+00
  4.707281528897E+00  4.452241191729E+00  4.209249060797E+00  3.977923462378E+00
  3.757865114588E+00  3.548665097558E+00  3.349913890177E+00  3.161204607368E+00
  2.982135761533E+00  2.812313524870E+00  2.651353449128E+00  2.498881617701E+00
  2.354534850422E+00  2.217959017601E+00  2.088806628846E+00  1.966737764471E+00
  1.851420760277E+00  1.742532827956E+00  1.639760566133E+00  1.542800369992E+00
  1.451358747377E+00  1.365152549087E+00  1.283909120914E+00  1.207366384751E+00
  1.135272855801E+00  1.067387602650E+00  1.003480156635E+00  9.433303765821E-01
  8.867282746872E-01  8.334738088884E-01  7.833766467755E-01  7.362559056809E-01
  6.919398732541E-01  6.502657124638E-01  6.110791546286E-01  5.742341837419E-01
  5.395927150386E-01  5.070242704412E-01  4.764056532337E-01  4.476206240335E-01
  4.205595798753E-01  3.951192379757E-01  3.712023255237E-01  3.487172766335E-01
  3.275779374045E-01  3.077032798570E-01  2.890171253552E-01  2.714478779812E-01
  2.549282681997E-01  2.393951070300E-01  2.247890508488E-01  2.110543768482E-01
  1.981387691022E-01  1.859931151227E-01  1.745713127312E-01  1.638300870220E-01
  1.537288171529E-01  1.442293726688E-01  1.352959590340E-01  1.268949720337E-01
  1.189948606874E-01  1.115659983100E-01  1.045805613505E-01  9.801241563698E-02
  9.183700965786E-02  8.603127451564E-02  8.057353019382E-02  7.544339778857E-02
  7.062171736573E-02  6.609047111559E-02  6.183271149033E-02  5.783249402176E-02
  5.407481453086E-02  5.054555045391E-02  4.723140602391E-02  4.411986105994E-02
  4.119912312991E-02  3.845808286614E-02  3.588627222526E-02  3.347382549682E-02
  3.121144287637E-02  2.909035643057E-02  2.710229829225E-02  2.523947093386E-02
  2.349451937731E-02  2.186050520765E-02  2.033088226523E-02  1.889947390218E-02
  1.756045169342E-02  1.630831550131E-02  1.513787479951E-02  1.404423116804E-02
  1.302276187728E-02  1.206910448447E-02  1.117914237171E-02  1.034899115904E-02
  9.574985931332E-03  8.853669221983E-03  8.181779700436E-03  7.556241514781E-03
  6.974154244156E-03  6.432783419240E-03  5.929551572354E-03  5.462029781743E-03
  5.027929677446E-03  4.625095878792E-03  4.251498836039E-03  3.905228050908E-03
  3.584485652879E-03  3.287580310033E-03  3.012921454957E-03  2.759013807857E-03
  2.524452180453E-03  2.307916545539E-03  2.108167358270E-03  1.924041116268E-03
  1.754446146595E-03  1.598358608419E-03  1.454818700965E-03  1.322927066920E-03
  1.201841382060E-03  1.090773122299E-03  9.889844997872E-04  8.957855600607E-04
  8.105314325340E-04  7.326197269278E-04  6.614880684771E-04  5.966117650008E-04
  5.375015991483E-04  4.837017393589E-04  4.347877632991E-04  3.903647877711E-04
  3.500656993242E-04  3.135494800467E-04  2.804996232696E-04  2.506226341801E-04
  2.236466106071E-04  1.993198995195E-04  1.774098250497E-04  1.577014841313E-04
  1.399966061054E-04  1.241124729125E-04  1.098808967370E-04  9.714725220665E-05
  8.576956046993E-05  7.561762268059E-05  6.657220060114E-05  5.852424220675E-05
  5.137415031790E-05  4.503109242075E-05  3.941234994648E-05  3.444270537688E-05
  3.005386562451E-05  2.618392020333E-05  2.277683276106E-05  1.978196459060E-05
  1.715362877467E-05  1.485067364844E-05  1.283609429064E-05  1.107667077478E-05
  9.542631932130E-06  8.207343395817E-06  7.047018713545E-06  6.040452334962E-06
  5.168773299382E-06  4.415218471136E-06  3.764924193305E-06  3.204735256484E-06
  2.723030107378E-06  2.309561252641E-06  1.955309846202E-06  1.652353483264E-06
  1.393746261025E-06  1.173410204599E-06  9.860371964460E-07  8.270005883955E-07
  6.922757168915E-07  5.783685839796E-07  4.822520085521E-07  4.013085941394E-07
  3.332799008335E-07  2.762212494925E-07  2.284616259807E-07  1.885681916553E-07
  1.553149434445E-07  1.276551025375E-07  1.046968448034E-07  8.568201850130E-08
  6.996752555546E-08  5.700907163359E-08  4.634701744154E-08  3.759408905627E-08
  3.042472876616E-08  2.456588981463E-08  1.978909869285E-08  1.590362725872E-08
  1.275063403737E-08  1.019814965025E-08  8.136795516500E-09  6.476137867632E-09
  5.141590595759E-09  4.071791193932E-09  3.216383606030E-09  2.534148573713E-09
  1.991432296989E-09  1.557604615942E-09  1.217732758996E-09  9.494527599618E-10
  7.382579346108E-10  5.724569877061E-10  4.426535597659E-10  3.413167573787E-10
  2.624277741063E-10  2.011899588594E-10  1.537916319829E-10  1.172126222208E-10
  8.906693301639E-11  6.747517382459E-11  5.096143789413E-11  3.837019611646E-11
  2.879952823606E-11  2.154764676851E-11  1.607020196055E-11  1.194630261978E-11
  8.851560388045E-12  6.536775131687E-12  4.811136204729E-12  3.529026721772E-12
  2.579692810871E-12  1.879183227973E-12  1.364081930251E-12  9.866516648091E-13
  7.110840873444E-13  5.106145464689E-13  3.653101083863E-13  2.603798717926E-13
  1.848889803551E-13  1.307835097711E-13  9.215385083705E-14  6.468036688469E-14
  4.521782264605E-14  3.148505427778E-14  2.183413864866E-14  1.507937802799E-14
  1.037110928714E-14  7.102967306617E-15  4.844013932433E-15  3.289271978952E-15
  2.223825060899E-15  1.496873887819E-15  1.003068538883E-15  6.691347366812E-16
  4.443350728863E-16  2.936958841960E-16  1.932196430895E-16  1.265162900547E-16
  8.244393014704E-17  5.346419035259E-17  3.450118873454E-17  2.215370049897E-17
  1.415381812593E-17  8.996838108334E-18  5.689430847847E-18  3.579180183726E-18
  2.239788111519E-18  1.394156173399E-18  8.631160405405E-19  5.314373039967E-19
  3.254104133985E-19  1.981429149765E-19  1.199676403408E-19  7.222018073347E-20
  4.322469719170E-20  2.571899239784E-20  1.521226239237E-20  8.943763987931E-21
  5.226394788984E-21  0.000000000000E+00  0.000000000000E+00  0.000000000000E+00
  0.000000000000E+00  0.000000000000E+00  0.000000000000E+00  0.000000000000E+00
  0.000000000000E+00  0.000000000000E+00  0.000000000000E+00  0.000000000000E+00
  0.000000000000E+00  0.000000000000E+00
</data>
</radfunc>
</valence-charge>
<pseudocore-charge matching-radius="0.606153510745"
 number-of-continuous-derivatives="4">
<annotation model-charge-form="Teter function with specified parameters" />
<radfunc>
<data npts="291">
  1.895725067543E+02  1.895458758481E+02  1.894637144279E+02  1.893277542396E+02
  1.891388073871E+02  1.888905116113E+02  1.885743074455E+02  1.882125641699E+02
  1.878062532014E+02  1.873330059139E+02  1.868003179732E+02  1.862222154236E+02
  1.855247863701E+02  1.847978435336E+02  1.840731253251E+02  1.832401839196E+02
  1.822834429085E+02  1.813789400690E+02  1.803648788728E+02  1.792287041484E+02
  1.779566137269E+02  1.768309672032E+02  1.756003103156E+02  1.742556905751E+02
  1.727875691044E+02  1.711858211994E+02  1.694397475465E+02  1.680287309897E+02
  1.665252777101E+02  1.649243038207E+02  1.632205957175E+02  1.614088327512E+02
  1.594836152735E+02  1.574394987529E+02  1.552710346969E+02  1.529728191527E+02
  1.505395495815E+02  1.479660909056E+02  1.461701407807E+02  1.443083318266E+02
  1.423793699581E+02  1.403820524301E+02  1.383152825760E+02  1.361780856228E+02
  1.339696255923E+02  1.316892232848E+02  1.293363753296E+02  1.269107742697E+02
  1.244123296269E+02  1.218411898765E+02  1.191977652300E+02  1.164827511004E+02
  1.136971520907E+02  1.108423063135E+02  1.079199098071E+02  1.049320407774E+02
  1.018811833450E+02  9.877025043035E+01  9.560260536309E+01  9.238208174403E+01
  8.911300104103E+01  8.580018734492E+01  8.244897866261E+01  7.906523407777E+01
  7.565533606871E+01  7.222618724052E+01  6.878520070723E+01  6.706272053048E+01
  6.534028335225E+01  6.361895064690E+01  6.189981120599E+01  6.018397988694E+01
  5.847259621155E+01  5.676682281006E+01  5.506784370664E+01  5.337686244302E+01
  5.169510003737E+01  5.002379277648E+01  4.836418983967E+01  4.671755075421E+01
  4.508514268250E+01  4.346823754263E+01  4.186810896495E+01  4.028602908826E+01
  3.872326520100E+01  3.718107623368E+01  3.566070911055E+01  3.416339496996E+01
  3.269034526443E+01  3.124274775305E+01  2.982176240076E+01  2.842851720046E+01
  2.706410393602E+01  2.572957390579E+01  2.442593362816E+01  2.315414055237E+01
  2.191509879956E+01  2.070965496068E+01  1.953859397946E+01  1.840263514993E+01
  1.730242825967E+01  1.623854991051E+01  1.521150004991E+01  1.422169874647E+01
  1.326948324369E+01  1.235510532607E+01  1.147872903147E+01  1.064042874298E+01
  9.840187692555E+00  9.077896907345E+00  8.353354627501E+00  7.666266222174E+00
  7.016244627343E+00  6.402811325873E+00  5.825397886268E+00  5.283348072280E+00
  4.775920530626E+00  4.302292058775E+00  3.861561448970E+00  3.452753898539E+00
  3.074825969985E+00  2.726671077637E+00  2.407125470616E+00  2.114974674830E+00
  1.848960349614E+00  1.607787507659E+00  1.390132040156E+00  1.194648482689E+00
  1.019977951569E+00  8.647561750873E-01  7.276215397474E-01  6.072230680967E-01
  5.022282423697E-01  4.113305870161E-01  3.332569233556E-01  2.667742112189E-01
  2.106958955683E-01  1.638876807958E-01  1.252726616991E-01  9.383574800609E-02
  6.862732872440E-02  4.876613342041E-02  3.344125964971E-02  2.191334898266E-02
  1.351490816042E-02  7.649786608138E-03  3.791836507221E-03  1.482796542988E-03
  3.294549222151E-04  1.609071699061E-07  2.207665410819E-04  7.700910535688E-04
  1.475009262546E-03  2.205271795714E-03  2.868168854299E-03  3.403150314085E-03
  3.776513063269E-03  3.976261564653E-03  4.007239754627E-03  3.886621715758E-03
  3.639835357598E-03  3.296977995202E-03  2.889765713070E-03  2.449040319236E-03
  2.002839177051E-03  1.575014944554E-03  1.184374966028E-03  8.442944458583E-04
  5.627442413496E-04  3.426637042732E-04  1.826019279669E-04  7.754731569507E-05
  1.986570080654E-05  2.712532335129E-07  8.761836089070E-06  3.546087437156E-05
  7.132053451134E-05  1.086553143043E-04  1.414901319769E-04  1.657217564248E-04
  1.791060251069E-04  1.810949134109E-04  1.725564481352E-04  1.554161893151E-04
  1.322612671773E-04  1.059467475886E-04  7.923967549254E-05  5.452903426674E-05
  3.362080100123E-05  1.762717273166E-05  6.948865543296E-06  1.340115491904E-06
  3.850161358382E-08  1.936639359656E-06  5.770566679187E-06  1.030036377899E-05
  1.446198600989E-05  1.747491952430E-05  1.889731920039E-05  1.862783149044E-05
  1.686037355749E-05  1.400384759709E-05  1.058242641535E-05  7.133255629565E-06
  4.117130424769E-06  1.854229651513E-06  4.919509441243E-07  6.133757776077E-09
  0.000000000000E+00  0.000000000000E+00  0.000000000000E+00  0.000000000000E+00
  0.000000000000E+00  0.000000000000E+00  0.000000000000E+00  0.000000000000E+00
  0.000000000000E+00  0.000000000000E+00  0.000000000000E+00  0.000000000000E+00
  0.000000000000E+00  0.000000000000E+00  0.000000000000E+00  0.000000000000E+00
  0.000000000000E+00  0.000000000000E+00  0.000000000000E+00  0.000000000000E+00
  0.000000000000E+00  0.000000000000E+00  0.000000000000E+00  0.000000000000E+00
  0.000000000000E+00  0.000000000000E+00  0.000000000000E+00  0.000000000000E+00
  0.000000000000E+00  0.000000000000E+00  0.000000000000E+00  0.000000000000E+00
  0.000000000000E+00  0.000000000000E+00  0.000000000000E+00  0.000000000000E+00
  0.000000000000E+00  0.000000000000E+00  0.000000000000E+00  0.000000000000E+00
  0.000000000000E+00  0.000000000000E+00  0.000000000000E+00  0.000000000000E+00
  0.000000000000E+00  0.000000000000E+00  0.000000000000E+00  0.000000000000E+00
  0.000000000000E+00  0.000000000000E+00  0.000000000000E+00  0.000000000000E+00
  0.000000000000E+00  0.000000000000E+00  0.000000000000E+00  0.000000000000E+00
  0.000000000000E+00  0.000000000000E+00  0.000000000000E+00  0.000000000000E+00
  0.000000000000E+00  0.000000000000E+00  0.000000000000E+00  0.000000000000E+00
  0.000000000000E+00  0.000000000000E+00  0.000000000000E+00  0.000000000000E+00
  0.000000000000E+00  0.000000000000E+00  0.000000000000E+00  0.000000000000E+00
  0.000000000000E+00  0.000000000000E+00  0.000000000000E+00  0.000000000000E+00
  0.000000000000E+00  0.000000000000E+00  0.000000000000E+00  0.000000000000E+00
  0.000000000000E+00  0.000000000000E+00  0.000000000000E+00
</data>
</radfunc>
</pseudocore-charge>
<semilocal-potentials set="scalar_relativistic">
<slps n="4" l="s" rc="1.41383592476">
<radfunc>
<data npts="291">
 -7.000693269963E+00 -7.004532155345E+00 -7.016371293528E+00 -7.035947879514E+00
 -7.063123444794E+00 -7.098781235073E+00 -7.144103274408E+00 -7.195831893540E+00
 -7.253780738479E+00 -7.321073182787E+00 -7.396557699193E+00 -7.478167931504E+00
 -7.576197063919E+00 -7.677881956549E+00 -7.778758994486E+00 -7.894092628120E+00
 -8.025773671946E+00 -8.149491183426E+00 -8.287308982057E+00 -8.440623434457E+00
 -8.610916171599E+00 -8.760419531758E+00 -8.922612649805E+00 -9.098343296562E+00
 -9.288471794539E+00 -9.493861669130E+00 -9.715368309952E+00 -9.892577723962E+00
 -1.007966132406E+01 -1.027694185693E+01 -1.048472141363E+01 -1.070327636098E+01
 -1.093285187014E+01 -1.117365606755E+01 -1.142585384536E+01 -1.168956038067E+01
 -1.196483442673E+01 -1.225167145174E+01 -1.244928620084E+01 -1.265196751817E+01
 -1.285965837655E+01 -1.307228474956E+01 -1.328975476437E+01 -1.351195788842E+01
 -1.373876415705E+01 -1.397002344908E+01 -1.420556481686E+01 -1.444519587712E+01
 -1.468870226805E+01 -1.493584717751E+01 -1.518637094619E+01 -1.543999074860E+01
 -1.569640035327E+01 -1.595526996265E+01 -1.621624613120E+01 -1.647895175919E+01
 -1.674298615768E+01 -1.700792517900E+01 -1.727332140531E+01 -1.753870438662E+01
 -1.780358091821E+01 -1.806743534691E+01 -1.832972989466E+01 -1.858990498767E+01
 -1.884737958037E+01 -1.910155146374E+01 -1.935179754972E+01 -1.947524805795E+01
 -1.959747412617E+01 -1.971839210456E+01 -1.983791708067E+01 -1.995596288508E+01
 -2.007244209678E+01 -2.018726604869E+01 -2.030034483324E+01 -2.041158730861E+01
 -2.052090110559E+01 -2.062819263579E+01 -2.073336710138E+01 -2.083632850706E+01
 -2.093697967480E+01 -2.103522226213E+01 -2.113095678475E+01 -2.122408264445E+01
 -2.131449816332E+01 -2.140210062552E+01 -2.148678632784E+01 -2.156845064042E+01
 -2.164698807927E+01 -2.172229239201E+01 -2.179425665854E+01 -2.186277340822E+01
 -2.192773475498E+01 -2.198903255187E+01 -2.204655856598E+01 -2.210020467442E+01
 -2.214986308165E+01 -2.219542655748E+01 -2.223678869461E+01 -2.227384418348E+01
 -2.230648910130E+01 -2.233462121121E+01 -2.235814026638E+01 -2.237694831341E+01
 -2.239094998854E+01 -2.240005280019E+01 -2.240416739151E+01 -2.240320777748E+01
 -2.239709155247E+01 -2.238574006578E+01 -2.236907856548E+01 -2.234703631289E+01
 -2.231954667335E+01 -2.228654719105E+01 -2.224797965810E+01 -2.220379018949E+01
 -2.215392931645E+01 -2.209835211009E+01 -2.203701834671E+01 -2.196989272344E+01
 -2.189694513060E+01 -2.181815098377E+01 -2.173349161507E+01 -2.164295471980E+01
 -2.154653485151E+01 -2.144423395578E+01 -2.133606193110E+01 -2.122203720396E+01
 -2.110218730470E+01 -2.097654943108E+01 -2.084517098753E+01 -2.070811008983E+01
 -2.056543602725E+01 -2.041722967698E+01 -2.026358386844E+01 -2.010460369840E+01
 -1.994040680008E+01 -1.977112357251E+01 -1.959689737785E+01 -1.941788471625E+01
 -1.923425538853E+01 -1.904619265765E+01 -1.885389342035E+01 -1.865756840058E+01
 -1.845744237731E+01 -1.825375446030E+01 -1.804675843002E+01 -1.783672316070E+01
 -1.762393315053E+01 -1.740868918846E+01 -1.719130919453E+01 -1.697212927888E+01