<?xml version="1.0" encoding="UTF-8" ?>
<psml version="1.1" energy_unit="hartree" length_unit="bohr"
 uuid="0b2b7c10-431a-11e8-42e5-ad6ddf4f1282"
 xmlns="http://esl.cecam.org/PSML/ns/1.1">
<provenance creator="ONCVPSP-3.3.0+psml-3.3.0-73 (fully-relativistic)"
 date="2018-04-18">
<annotation action="semilocal-pseudopotential-generation"
 action-cont="projectors-generation" />
<input-file name="oncvpsp-input">
<![CDATA[# atsym z nc nv iexc psfile
K 19 3 3 4 both
# n l f
1 0 2.0
2 0 2.0
2 1 6.0
3 0 2.0
3 1 6.0
4 0 1.0
# lmax
2
# l rc ep ncon nbas qcut
0 1.35 0.0 4 8 8.2
1 1.45 0.0 4 8 8.6
2 1.6 0.05 4 8 8.2
# lloc lpopt rc5 dvloc0
4 5 1.1 0.0
# l nproj debl
0 2 1.0
1 2 0.8
2 2 0.5
# icmod fcfact
3 5 1.4
# epsh1 epsh2 depsh
-12.0 12.0 0.02
# rlmax drl
4.0 0.01
 0
]]>
</input-file>
</provenance>
<pseudo-atom-spec atomic-label="K" atomic-number="19" z-pseudo="9"
 flavor="Hamann&apos;s oncvpsp" relativity="dirac" spin-dft="no"
 core-corrections="yes">
<annotation pseudo-energy="-28.3547180004" />
<exchange-correlation>
<annotation oncvpsp-xc-code="4" oncvpsp-xc-type="GGA -- Perdew-Burke-Ernzerhof" />
<libxc-info number-of-functionals="2">
<functional name="Perdew, Burke &amp; Ernzerhof (GGA)" type="exchange" id="101" />
<functional name="Perdew, Burke &amp; Ernzerhof (GGA)" type="correlation"
 id="130" />
</libxc-info>
</exchange-correlation>
<valence-configuration total-valence-charge="9">
<shell n="3" l="s" occupation="2" />
<shell n="3" l="p" occupation="6" />
<shell n="4" l="s" occupation="1" />
</valence-configuration>
</pseudo-atom-spec>
<grid npts="458">
<annotation type="sampled from oncvpsp log grid"
 recipe="r(i:1..N) = r1*exp(a*(i-1)) + r=0; resampled"
 recipe-cont="r1: scale; a: step" scale="0.263157894737E-04"
 step="0.119285708653E-01" delta="0.500000000000E-02" rmax="44.3805247454" />
<grid-data>
  0.000000000000E+00  5.007741529749E-03  1.012260156078E-02  1.518551649569E-02
  2.021910222441E-02  2.536247345865E-02  3.069586001339E-02  3.584482530836E-02
  4.087070279455E-02  4.604868479549E-02  5.126746496251E-02  5.640088820213E-02
  6.204832230958E-02  6.745181355051E-02  7.245639225921E-02  7.783228504730E-02
  8.360704151557E-02  8.874531156514E-02  9.419936624988E-02  9.998861286736E-02
  1.061336514369E-01  1.113205019773E-01  1.167608387415E-01  1.224670498379E-01
  1.284521287929E-01  1.347297041389E-01  1.413140704474E-01  1.464626688527E-01
  1.517988498918E-01  1.573294478995E-01  1.630615462106E-01  1.690024862325E-01
  1.751598768472E-01  1.815416041568E-01  1.881558415833E-01  1.950110603372E-01
  2.021160402665E-01  2.094798811020E-01  2.145375633513E-01  2.197173582809E-01
  2.250222141792E-01  2.304551505184E-01  2.360192596725E-01  2.417177086780E-01
  2.475537410363E-01  2.535306785599E-01  2.596519232631E-01  2.659209592983E-01
  2.723413549396E-01  2.789167646133E-01  2.856509309781E-01  2.925476870557E-01
  2.996109584119E-01  3.068447653918E-01  3.142532254075E-01  3.218405552817E-01
  3.296110736484E-01  3.375692034106E-01  3.457194742577E-01  3.540665252442E-01
  3.626151074297E-01  3.713700865835E-01  3.803364459540E-01  3.895192891051E-01
  3.989238428212E-01  4.085554600823E-01  4.184196231105E-01  4.234406585878E-01
  4.285219464909E-01  4.336642098488E-01  4.388681803670E-01  4.441345985314E-01
  4.494642137138E-01  4.548577842783E-01  4.603160776897E-01  4.658398706219E-01
  4.714299490694E-01  4.770871084582E-01  4.828121537597E-01  4.886058996048E-01
  4.944691704001E-01  5.004028004449E-01  5.064076340502E-01  5.124845256588E-01
  5.186343399668E-01  5.248579520464E-01  5.311562474709E-01  5.375301224406E-01
  5.439804839099E-01  5.505082497168E-01  5.571143487134E-01  5.637997208979E-01
  5.705653175487E-01  5.774121013593E-01  5.843410465756E-01  5.913531391345E-01
  5.984493768041E-01  6.056307693258E-01  6.128983385577E-01  6.202531186204E-01
  6.276961560438E-01  6.352285099163E-01  6.428512520353E-01  6.505654670598E-01
  6.583722526645E-01  6.662727196965E-01  6.742679923328E-01  6.823592082408E-01
  6.905475187397E-01  6.988340889646E-01  7.072200980321E-01  7.157067392085E-01
  7.242952200790E-01  7.329867627200E-01  7.417826038726E-01  7.506839951191E-01
  7.596922030605E-01  7.688085094973E-01  7.780342116112E-01  7.873706221506E-01
  7.968190696164E-01  8.063808984518E-01  8.160574692332E-01  8.258501588640E-01
  8.357603607703E-01  8.457894850996E-01  8.559389589208E-01  8.662102264278E-01
  8.766047491450E-01  8.871240061347E-01  8.977694942083E-01  9.085427281388E-01
  9.194452408765E-01  9.304785837670E-01  9.416443267722E-01  9.529440586935E-01
  9.643793873978E-01  9.759519400466E-01  9.876633633271E-01  9.995153236871E-01
  1.011509507571E+00  1.023647621662E+00  1.035931393122E+00  1.048362569840E+00
  1.060942920678E+00  1.073674235726E+00  1.086558326554E+00  1.099597026473E+00
  1.112792190791E+00  1.126145697080E+00  1.139659445445E+00  1.153335358791E+00
  1.167175383096E+00  1.181181487693E+00  1.195355665546E+00  1.209699933532E+00
  1.224216332735E+00  1.238906928727E+00  1.253773811872E+00  1.268819097615E+00
  1.284044926786E+00  1.299453465907E+00  1.315046907498E+00  1.330827470388E+00
  1.346797400033E+00  1.362958968833E+00  1.379314476459E+00  1.395866250177E+00
  1.412616645179E+00  1.429568044921E+00  1.446722861460E+00  1.464083535798E+00
  1.481652538227E+00  1.499432368686E+00  1.517425557110E+00  1.535634663795E+00
  1.554062279761E+00  1.572711027118E+00  1.591583559444E+00  1.610682562157E+00
  1.630010752903E+00  1.649570881938E+00  1.669365732521E+00  1.689398121311E+00
  1.709670898767E+00  1.730186949552E+00  1.750949192947E+00  1.771960583262E+00
  1.793224110261E+00  1.814742799584E+00  1.836519713179E+00  1.858557949737E+00
  1.880860645134E+00  1.903430972876E+00  1.926272144550E+00  1.949387410285E+00
  1.972780059208E+00  1.996453419919E+00  2.020410860958E+00  2.044655791289E+00
  2.069191660785E+00  2.094021960714E+00  2.119150224243E+00  2.144580026934E+00
  2.170314987257E+00  2.196358767104E+00  2.222715072309E+00  2.249387653177E+00
  2.276380305015E+00  2.303696868675E+00  2.331341231099E+00  2.359317325873E+00
  2.387629133783E+00  2.416280683389E+00  2.445276051589E+00  2.474619364208E+00
  2.504314796579E+00  2.534366574138E+00  2.564778973027E+00  2.595556320704E+00
  2.626702996552E+00  2.658223432511E+00  2.690122113701E+00  2.722403579065E+00
  2.755072422014E+00  2.788133291078E+00  2.821590890571E+00  2.855449981258E+00
  2.889715381033E+00  2.924391965606E+00  2.959484669193E+00  2.994998485223E+00
  3.030938467046E+00  3.067309728650E+00  3.104117445394E+00  3.141366854739E+00
  3.179063256996E+00  3.217212016080E+00  3.255818560273E+00  3.294888382996E+00
  3.334427043592E+00  3.374440168115E+00  3.414933450132E+00  3.455912651534E+00
  3.497383603352E+00  3.539352206593E+00  3.581824433072E+00  3.624806326269E+00
  3.668304002184E+00  3.712323650210E+00  3.756871534013E+00  3.801953992421E+00
  3.847577440330E+00  3.893748369614E+00  3.940473350049E+00  3.987759030250E+00
  4.035612138613E+00  4.084039484276E+00  4.133047958087E+00  4.182644533584E+00
  4.232836267987E+00  4.283630303203E+00  4.335033866842E+00  4.387054273244E+00
  4.439698924523E+00  4.492975311617E+00  4.546891015356E+00  4.601453707541E+00
  4.656671152031E+00  4.712551205855E+00  4.769101820326E+00  4.826331042170E+00
  4.884247014676E+00  4.942857978852E+00  5.002172274598E+00  5.062198341893E+00
  5.122944721996E+00  5.184420058660E+00  5.246633099364E+00  5.309592696556E+00
  5.373307808915E+00  5.437787502622E+00  5.503040952653E+00  5.569077444085E+00
  5.635906373414E+00  5.703537249895E+00  5.771979696894E+00  5.841243453257E+00
  5.911338374696E+00  5.982274435192E+00  6.054061728414E+00  6.126710469155E+00
  6.200230994785E+00  6.274633766723E+00  6.349929371923E+00  6.426128524386E+00
  6.503242066679E+00  6.581280971479E+00  6.660256343137E+00  6.740179419254E+00
  6.821061572286E+00  6.902914311153E+00  6.985749282887E+00  7.069578274281E+00
  7.154413213573E+00  7.240266172136E+00  7.327149366201E+00  7.415075158596E+00
  7.504056060499E+00  7.594104733225E+00  7.685233990024E+00  7.777456797904E+00
  7.870786279479E+00  7.965235714832E+00  8.060818543410E+00  8.157548365931E+00
  8.255438946323E+00  8.354504213678E+00  8.454758264243E+00  8.556215363413E+00
  8.658889947774E+00  8.762796627148E+00  8.867950186673E+00  8.974365588914E+00
  9.082057975981E+00  9.191042671692E+00  9.301335183753E+00  9.412951205958E+00
  9.525906620429E+00  9.640217499874E+00  9.755900109873E+00  9.872970911191E+00
  9.991446562126E+00  1.011134392087E+01  1.023268004792E+01  1.035547220850E+01
  1.047973787500E+01  1.060549472950E+01  1.073276066625E+01  1.086155379425E+01
  1.099189243978E+01  1.112379514906E+01  1.125728069084E+01  1.139236805913E+01
  1.152907647584E+01  1.166742539355E+01  1.180743449828E+01  1.194912371226E+01
  1.209251319680E+01  1.223762335517E+01  1.238447483543E+01  1.253308853345E+01
  1.268348559585E+01  1.283568742300E+01  1.298971567208E+01  1.314559226014E+01
  1.330333936727E+01  1.346297943967E+01  1.362453519295E+01  1.378802961527E+01
  1.395348597065E+01  1.412092780230E+01  1.429037893592E+01  1.446186348315E+01
  1.463540584495E+01  1.481103071509E+01  1.498876308367E+01  1.516862824068E+01
  1.535065177957E+01  1.553485960092E+01  1.572127791613E+01  1.590993325112E+01
  1.610085245014E+01  1.629406267954E+01  1.648959143169E+01  1.668746652887E+01
  1.688771612722E+01  1.709036872075E+01  1.729545314540E+01  1.750299858314E+01
  1.771303456614E+01  1.792559098093E+01  1.814069807270E+01  1.835838644958E+01
  1.857868708697E+01  1.880163133202E+01  1.902725090800E+01  1.925557791890E+01
  1.948664485392E+01  1.972048459217E+01  1.995713040728E+01  2.019661597216E+01
  2.043897536383E+01  2.068424306819E+01  2.093245398501E+01  2.118364343283E+01
  2.143784715403E+01  2.169510131988E+01  2.195544253571E+01  2.221890784614E+01
  2.248553474030E+01  2.275536115718E+01  2.302842549107E+01  2.330476659696E+01
  2.358442379612E+01  2.386743688168E+01  2.415384612426E+01  2.444369227775E+01
  2.473701658508E+01  2.503386078410E+01  2.533426711351E+01  2.563827831887E+01
  2.594593765870E+01  2.625728891060E+01  2.657237637753E+01  2.689124489406E+01
  2.721393983279E+01  2.754050711078E+01  2.787099319611E+01  2.820544511447E+01
  2.854391045584E+01  2.888643738131E+01  2.923307462988E+01  2.958387152544E+01
  2.993887798375E+01  3.029814451955E+01  3.066172225379E+01  3.102966292083E+01
  3.140201887588E+01  3.177884310239E+01  3.216018921962E+01  3.254611149026E+01
  3.293666482814E+01  3.333190480608E+01  3.373188766375E+01  3.413667031572E+01
  3.454631035951E+01  3.496086608382E+01  3.538039647683E+01  3.580496123455E+01
  3.623462076936E+01  3.666943621859E+01  3.710946945322E+01  3.755478308666E+01
  3.800544048370E+01  3.846150576950E+01  3.892304383873E+01  3.939012036480E+01
  3.986280180918E+01  4.034115543089E+01  4.082524929606E+01  4.131515228761E+01
  4.181093411506E+01  4.231266532444E+01  4.282041730834E+01  4.333426231604E+01
  4.385427346383E+01  4.438052474539E+01
</grid-data>
</grid>
<valence-charge total-charge="9" is-unscreening-charge="yes"
 rescaled-to-z-pseudo="no">
<radfunc>
<data npts="458">
  5.977285493239E-02  6.026315641785E-02  6.177627626311E-02  6.428165957683E-02
  6.776651711348E-02  7.235142037064E-02  7.819924265185E-02  8.490158946410E-02
  9.244541405862E-02  1.012530629244E-01  1.111941431061E-01  1.220154403868E-01
  1.351158350514E-01  1.488237760342E-01  1.625440517114E-01  1.783804958426E-01
  1.966600380185E-01  2.140299025688E-01  2.336065337767E-01  2.556706459028E-01
  2.805386038624E-01  3.026898119434E-01  3.270657783935E-01  3.538897513076E-01
  3.834071336594E-01  4.158875649404E-01  4.516271531812E-01  4.807649911788E-01
  5.120667918087E-01  5.456916347749E-01  5.818097693567E-01  6.206032560922E-01
  6.622666083166E-01  7.070074224448E-01  7.550469826986E-01  8.066208221169E-01
  8.619792170243E-01  9.213875865503E-01  9.633811957835E-01  1.007386328990E+00
  1.053493084171E+00  1.101794582703E+00  1.152386908469E+00  1.205369015300E+00
  1.260842597669E+00  1.318911919004E+00  1.379683591331E+00  1.443266299305E+00
  1.509770460955E+00  1.579307816723E+00  1.651990937616E+00  1.727932642492E+00
  1.807245313714E+00  1.890040099664E+00  1.976425991843E+00  2.066508763695E+00
  2.160389757714E+00  2.258164507046E+00  2.359921177615E+00  2.465738816916E+00
  2.575685396077E+00  2.689815632658E+00  2.808168583061E+00  2.930764995453E+00
  3.057604416858E+00  3.188662051691E+00  3.323885373618E+00  3.393034282186E+00
  3.463190498308E+00  3.534338004739E+00  3.606458331605E+00  3.679530425446E+00
  3.753530515905E+00  3.828431980407E+00  3.904205207256E+00  3.980817457616E+00
  4.058232726877E+00  4.136411606014E+00  4.215311143550E+00  4.294884708856E+00
  4.375081857523E+00  4.455848199680E+00  4.537125272132E+00  4.618850415318E+00
  4.700956656119E+00  4.783372597650E+00  4.866022317206E+00  4.948825273648E+00
  5.031696225523E+00  5.114545161331E+00  5.197277243383E+00  5.279792766751E+00
  5.361987134872E+00  5.443750853398E+00  5.524969543933E+00  5.605523979303E+00
  5.685290142025E+00  5.764139307663E+00  5.841938154699E+00  5.918548902569E+00
  5.993829479429E+00  6.067633721173E+00  6.139811603132E+00  6.210209505786E+00
  6.278670515683E+00  6.345034762621E+00  6.409139793974E+00  6.470820986821E+00
  6.529911998365E+00  6.586245254825E+00  6.639652478739E+00  6.689965254324E+00
  6.737015630199E+00  6.780636758431E+00  6.820663568528E+00  6.856933474568E+00
  6.889287113298E+00  6.917569110585E+00  6.941628873186E+00  6.961321402366E+00
  6.976508125444E+00  6.987057740917E+00  6.992847072349E+00  6.993761925816E+00
  6.989697945259E+00  6.980561459693E+00  6.966270315880E+00  6.946754689708E+00
  6.921957869203E+00  6.891837001866E+00  6.856363798782E+00  6.815525187807E+00
  6.769323908002E+00  6.717779037478E+00  6.660926446829E+00  6.598819170434E+00
  6.531527688118E+00  6.459140109919E+00  6.381762257130E+00  6.299517633199E+00
  6.212547278729E+00  6.121009505473E+00  6.025079505062E+00  5.924948829141E+00
  5.820824738676E+00  5.712929421365E+00  5.601499077446E+00  5.486782875640E+00
  5.369041782523E+00  5.248547270335E+00  5.125579910015E+00  5.000427858175E+00
  4.873385248707E+00  4.744750501580E+00  4.614824563274E+00  4.483909095210E+00
  4.352304628269E+00  4.220308703145E+00  4.088214017661E+00  3.956306603366E+00
  3.824864054542E+00  3.694153833231E+00  3.564431673926E+00  3.435940111182E+00
  3.308907152434E+00  3.183545116938E+00  3.060049805574E+00  2.938600479260E+00
  2.819360369112E+00  2.702476395209E+00  2.588078562918E+00  2.476279868016E+00
  2.367176558464E+00  2.260849958252E+00  2.157369234938E+00  2.056792254170E+00
  1.959165521946E+00  1.864524845652E+00  1.772895763334E+00  1.684294030973E+00
  1.598726119399E+00  1.516189721745E+00  1.436674267988E+00  1.360161443683E+00
  1.286625710065E+00  1.216034822864E+00  1.148350347397E+00  1.083528167682E+00
  1.021518987510E+00  9.622688216139E-01  9.057194752609E-01  8.518090107616E-01
  8.004721995968E-01  7.516409590151E-01  7.052447721237E-01  6.612110906505E-01
  6.194657197029E-01  5.799331839814E-01  5.425370750359E-01  5.072003792681E-01
  4.738457864900E-01  4.423959789494E-01  4.127739008201E-01  3.849030082421E-01
  3.587075000687E-01  3.341125295533E-01  3.110443972702E-01  2.894307256302E-01
  2.692006154075E-01  2.502847847531E-01  2.326156912209E-01  2.161276373863E-01
  2.007568606833E-01  1.864416081317E-01  1.731221966689E-01  1.607410598361E-01
  1.492427816030E-01  1.385741181413E-01  1.286840083781E-01  1.195235741747E-01
  1.110461109834E-01  1.032070698334E-01  9.596403148976E-02  8.927667361350E-02
  8.310673172597E-02  7.741795475253E-02  7.217605588036E-02  6.734865942264E-02
  6.290524432997E-02  5.881708493460E-02  5.505718945186E-02  5.160023669964E-02
  4.842251143026E-02  4.550183860403E-02  4.281751687204E-02  4.035025148245E-02
  3.808208678533E-02  3.599633849156E-02  3.407752584887E-02  3.231130393768E-02
  3.068439636411E-02  2.918452873461E-02  2.780036342610E-02  2.652143629632E-02
  2.533809608035E-02  2.424144725284E-02  2.322329706421E-02  2.227610726303E-02
  2.139295070344E-02  2.056747265375E-02  1.979385624741E-02  1.906679123662E-02
  1.838144508614E-02  1.773343549694E-02  1.711880364397E-02  1.653398768170E-02
  1.597579634409E-02  1.544138268619E-02  1.492821815735E-02  1.443406726105E-02
  1.395696305920E-02  1.349518374235E-02  1.304723043164E-02  1.261180631801E-02
  1.218779718967E-02  1.177425335272E-02  1.137037291505E-02  1.097548637801E-02
  1.058904246308E-02  1.021059509003E-02  9.839791417434E-03  9.476360854277E-03
  9.120104952415E-03  8.770888093262E-03  8.428628887424E-03  8.093292213423E-03
  7.764881830585E-03  7.443433511389E-03  7.129008649719E-03  6.821688312938E-03
  6.521567716859E-03  6.228751112890E-03  5.943347085127E-03  5.665464261430E-03
  5.395207446272E-03  5.132674184146E-03  4.877951760904E-03  4.631114646776E-03
  4.392222379683E-03  4.161317881316E-03  3.938426192023E-03  3.723553604348E-03
  3.516687169481E-03  3.317794546390E-03  3.126824159927E-03  2.943705632078E-03
  2.768350451379E-03  2.600652833719E-03  2.440490758615E-03  2.287727126373E-03
  2.142211014135E-03  2.003778999213E-03  1.872256522948E-03  1.747459271283E-03
  1.629194551193E-03  1.517262645045E-03  1.411458127735E-03  1.311571134097E-03
  1.217388566531E-03  1.128695235038E-03  1.045274923881E-03  9.669113809200E-04
  8.933892272791E-04  8.244947863932E-04  7.600168327221E-04  6.997472614344E-04
  6.434816812354E-04  5.910199332198E-04  5.421665391957E-04  4.967310833563E-04
  4.545285314954E-04  4.153794921629E-04  3.791104242717E-04  3.455537956856E-04
  3.145481972698E-04  2.859384167662E-04  2.595754766810E-04  2.353166401580E-04
  2.130253885549E-04  1.925713741624E-04  1.738303512142E-04  1.566840880349E-04
  1.410202628770E-04  1.267323457122E-04  1.137194679707E-04  1.018862819782E-04
  9.114281161449E-05  8.140429552772E-05  7.259102407298E-05  6.462817100874E-05
  5.744562087675E-05  5.097779290772E-05  4.516346223279E-05  3.994557913638E-05
  3.527108705511E-05  3.109074000604E-05  2.735892011251E-05  2.403345588313E-05
  2.107544188669E-05  1.844906045081E-05  1.612140599276E-05  1.406231256621E-05
  1.224418517781E-05  1.064183539048E-05  9.232321688989E-06  7.994795035937E-06
  6.910349995075E-06  5.961881744488E-06  5.133949245453E-06  4.412644775237E-06
  3.785469974572E-06  3.241218504212E-06  2.769865350680E-06  2.362462769929E-06
  2.011042809798E-06  1.708526308389E-06  1.448638226248E-06  1.225829135650E-06
  1.035202660650E-06  8.724486366845E-07  7.337817385107E-07  6.158853097653E-07
  5.158601163420E-07  4.311777387146E-07  3.596383149744E-07  2.993323463265E-07
  2.486062797236E-07  2.060315878072E-07  1.703770740069E-07  1.405841401353E-07
  1.157447647651E-07  9.508195275249E-08  7.793242917070E-08  6.373136436973E-08
  5.199893064873E-08  4.232850485271E-08  3.437634497317E-08  2.785258232000E-08
  2.251338394351E-08  1.815415260470E-08  1.460364363866E-08  1.171888946927E-08
  9.380833270198E-09  7.490583302793E-09  5.966208783981E-09  4.740006747438E-09
  3.756177270309E-09  2.968851664755E-09  2.340424804393E-09  1.840148701240E-09
  1.442949803589E-09  1.128437286337E-09  8.800738911598E-10  6.844846835479E-10
  5.308824659767E-10  4.105915593615E-10  3.166542753435E-10  2.435066849809E-10
  1.867122784289E-10  1.427438364041E-10  1.088053266815E-10  8.268692439941E-11
  6.264735809700E-11  4.731872657015E-11  3.562973503429E-11  2.674398093037E-11
  2.001049628462E-11  1.492423930757E-11  1.109463570449E-11  8.220611241683E-12
  6.070841347038E-12  4.468179526392E-12  3.277421617958E-12  2.395723832944E-12
  1.745124685239E-12  1.266729039013E-12  9.162006411677E-13  6.602810823876E-13
  4.741110399129E-13  3.391763298286E-13  2.417387732653E-13  1.716418568306E-13
  1.214050515939E-13  8.553961109710E-14  6.003365495199E-14  4.196614526710E-14
  2.921861847604E-14  2.026076495081E-14  1.399157344851E-14  9.622115408900E-15
  6.589406700878E-15  4.493368130167E-15  3.050882908106E-15  2.062455424059E-15
  1.388118222903E-15  9.300970671495E-16  6.203929107325E-16  4.119254466259E-16
  2.722449807032E-16  1.790880209802E-16  1.172503698871E-16  7.639734436946E-17
  4.953745951244E-17  3.196357139401E-17  0.000000000000E+00  0.000000000000E+00
  0.000000000000E+00  0.000000000000E+00
</data>
</radfunc>
</valence-charge>
<pseudocore-charge matching-radius="0.674267992333"
 number-of-continuous-derivatives="4">
<annotation model-charge-form="Teter function with specified parameters" />
<radfunc>
<data npts="257">
  3.498911591970E+01  3.498600497621E+01  3.497640617572E+01  3.496051899869E+01
  3.493843372620E+01  3.490939984926E+01  3.487240626358E+01  3.483005876674E+01
  3.478246056561E+01  3.472697629594E+01  3.466446541196E+01  3.459655571603E+01
  3.451453215174E+01  3.442892453940E+01  3.434346350670E+01  3.424509732791E+01
  3.413192096044E+01  3.402473588267E+01  3.390434893819E+01  3.376918779993E+01
  3.361750731054E+01  3.348297667994E+01  3.333555778730E+01  3.317407984688E+01
  3.299727912444E+01  3.280379444711E+01  3.259216318349E+01  3.242059214688E+01
  3.223723341911E+01  3.204135197232E+01  3.183217845740E+01  3.160890947645E+01
  3.137070824272E+01  3.111670569851E+01  3.084600217004E+01  3.055766964689E+01
  3.025075478319E+01  2.992428272707E+01  2.969528043147E+01  2.945684880643E+01
  2.920868981001E+01  2.895050513670E+01  2.868199735090E+01  2.840287115106E+01
  2.811283477310E+01  2.781160154163E+01  2.749889157780E+01  2.717443367194E+01
  2.683796732901E+01  2.648924499437E+01  2.612803446637E+01  2.575412150147E+01
  2.536731261624E+01  2.496743808908E+01  2.455435516224E+01  2.412795144304E+01
  2.368814849966E+01  2.323490564428E+01  2.276822389233E+01  2.228815008234E+01
  2.179478113611E+01  2.128826843353E+01  2.076882226995E+01  2.023671635787E+01
  1.969229232668E+01  1.913596416680E+01  1.856822255569E+01  1.828024703489E+01
  1.798963899441E+01  1.769648313512E+01  1.740086967371E+01  1.710289444218E+01
  1.680265897950E+01  1.650027061420E+01  1.619584253732E+01  1.588949386448E+01
  1.558134968631E+01  1.527154110616E+01  1.496020526398E+01  1.464748534540E+01
  1.433353057494E+01  1.401849619218E+01  1.370254340983E+01  1.338583935253E+01
  1.306855697537E+01  1.275087496087E+01  1.243297759349E+01  1.211505461042E+01
  1.179730102771E+01  1.147991694071E+01  1.116310729788E+01  1.084708164693E+01
  1.053205385275E+01  1.021824178601E+01  9.905866982172E+00  9.595154270001E+00
  9.286331369500E+00  8.979628458755E+00  8.675277709689E+00  8.373512792757E+00
  8.074568350813E+00  7.778679442603E+00  7.486080956541E+00  7.197006995667E+00
  6.911690234948E+00  6.630361252306E+00  6.353247835102E+00  6.080574264024E+00
  5.812560576696E+00  5.549421813592E+00  5.291367249184E+00  5.038599611567E+00
  4.791314294150E+00  4.549698563315E+00  4.313930766272E+00  4.084179543681E+00
  3.860603051887E+00  3.643348199920E+00  3.432549906698E+00  3.228330384075E+00
  3.030798451643E+00  2.840048889316E+00  2.656161833910E+00  2.479202225964E+00
  2.309219313135E+00  2.146246216400E+00  1.990299565258E+00  1.841379207914E+00
  1.699468002191E+00  1.564531692571E+00  1.436518878366E+00  1.315361077486E+00
  1.200972889671E+00  1.093252262378E+00  9.920808616930E-01  8.973245497838E-01
  8.088339694253E-01  7.264452350821E-01  6.499807289139E-01  5.792499988731E-01
  5.140507548243E-01  4.541699573337E-01  3.993849924715E-01  3.494649246637E-01
  3.041718183352E-01  2.632621178369E-01  2.264880739587E-01  1.935992042303E-01
  1.643437732294E-01  1.384702782721E-01  1.157289251938E-01  9.587307844740E-02
  7.866066949660E-02  6.385554746467E-02  5.122875625483E-02  4.055972288414E-02
  3.163734259160E-02  2.426094739237E-02  1.824114615352E-02  1.340052595385E-02
  9.574206445011E-03  6.610241128643E-03  4.369861871682E-03  2.727565558503E-03
  1.571044474767E-03  8.009647771617E-04  3.306001626973E-04  8.533054260057E-05
  2.018077360412E-06  2.827526791587E-05  1.216418507221E-04  2.486889422281E-04
  3.840701578299E-04  5.095402371004E-04  6.129619981139E-04  6.873221902695E-04
  7.297760051135E-04  7.407386447320E-04  7.230404637681E-04  6.811598409943E-04
  6.205451670198E-04  5.470342426939E-04  4.663760716839E-04  3.838566179267E-04
  3.040267111168E-04  2.305270524227E-04  1.660023280849E-04  1.120939024444E-04
  6.949854186130E-05  3.807920369867E-05  1.701317021966E-05  4.962744620199E-06
  2.543494591029E-07  1.053134048446E-06  5.522028742066E-06  1.195646938677E-05
  1.888861566225E-05  2.515764360838E-05  2.994543552187E-05  3.277954989800E-05
  3.350757224335E-05  3.224868975489E-05  2.932949830833E-05  2.521158068673E-05
  2.041828051067E-05  1.546737724083E-05  1.081513253225E-05  6.815557628163E-06
  3.696907268389E-06  1.555517019356E-06  3.653483137927E-07  1.528714484286E-10
  2.641468808322E-07  9.265800838350E-07  1.755624335492E-06  2.547559044238E-06
  3.148208836238E-06  3.464856118571E-06  3.468240513133E-06  3.185589497614E-06
  2.686732144159E-06  2.066095644158E-06  1.423688634785E-06  8.480156003351E-07
  4.032886524272E-07  1.224128042237E-07  6.169062522319E-09  0.000000000000E+00
  0.000000000000E+00  0.000000000000E+00  0.000000000000E+00  0.000000000000E+00
  0.000000000000E+00  0.000000000000E+00  0.000000000000E+00  0.000000000000E+00
  0.000000000000E+00  0.000000000000E+00  0.000000000000E+00  0.000000000000E+00
  0.000000000000E+00  0.000000000000E+00  0.000000000000E+00  0.000000000000E+00
  0.000000000000E+00  0.000000000000E+00  0.000000000000E+00  0.000000000000E+00
  0.000000000000E+00  0.000000000000E+00  0.000000000000E+00  0.000000000000E+00
  0.000000000000E+00  0.000000000000E+00  0.000000000000E+00  0.000000000000E+00
  0.000000000000E+00
</data>
</radfunc>
</pseudocore-charge>
<semilocal-potentials set="scalar_relativistic">
<slps n="3" l="s" rc="1.36295896883">
<radfunc>
<data npts="257">
  5.618874599672E+01  5.614770406732E+01  5.602133795732E+01  5.581307583258E+01
  5.552539090462E+01  5.515039010895E+01  5.467776761788E+01  5.414375146790E+01
  5.355226662052E+01  5.287419350162E+01  5.212457374916E+01  5.132691065867E+01
  5.038588768952E+01  4.942896388910E+01  4.849838483010E+01  4.745661247208E+01
  4.629513097741E+01  4.523009133482E+01  4.407245697769E+01  4.281894336409E+01
  4.146717589722E+01  4.031413312404E+01  3.909734000254E+01  3.781736608152E+01
  3.647544815173E+01  3.507353898803E+01  3.361434349192E+01  3.248441546272E+01
  3.132595783293E+01  3.014096642589E+01  2.893167167668E+01  2.770052726382E+01
  2.645019482934E+01  2.518352491188E+01  2.390353433608E+01  2.261338041914E+01
  2.131633246543E+01  2.001574111782E+01  1.914838956702E+01  1.828198661687E+01
  1.741754385887E+01  1.655606741773E+01  1.569855371401E+01  1.484598535212E+01
  1.399932717395E+01  1.315952251579E+01  1.232748970331E+01  1.150411881539E+01
  1.069026874382E+01  9.886764571131E+00  9.094395284554E+00  8.313911838833E+00
  7.546025576101E+00  6.791407005944E+00  6.050684944147E+00  5.324446004011E+00
  4.613234429869E+00  3.917552258407E+00  3.237859789774E+00  2.574576347204E+00
  1.928081301020E+00  1.298715330435E+00  6.867818945506E-01  9.254888233752E-02
 -4.837495898732E-01 -1.041911265616E+00 -1.581763753059E+00 -1.844777842088E+00
 -2.103162480121E+00 -2.356903604118E+00 -2.605988632630E+00 -2.850406402679E+00
 -3.090147107619E+00 -3.325202236179E+00 -3.555564512956E+00 -3.781227840527E+00
 -4.002187243343E+00 -4.218438814043E+00 -4.429979661248E+00 -4.636807860809E+00
 -4.838922408789E+00 -5.036323177723E+00 -5.229010875593E+00 -5.416987007937E+00
 -5.600253843100E+00 -5.778814380764E+00 -5.952672323856E+00 -6.121832053863E+00
 -6.286298609641E+00 -6.446077669684E+00 -6.601175537901E+00 -6.751599132841E+00
 -6.897355980295E+00 -7.038454209206E+00 -7.174902550728E+00 -7.306710340296E+00
 -7.433887522452E+00 -7.556444658213E+00 -7.674392934660E+00 -7.787744176374E+00
 -7.896510858337E+00 -8.000706119805E+00 -8.100343778655E+00 -8.195438345574E+00
 -8.286005037501E+00 -8.372059789590E+00 -8.453619264953E+00 -8.530700861416E+00
 -8.603322714470E+00 -8.671503695616E+00 -8.735263405305E+00 -8.794622159752E+00
 -8.849600970976E+00 -8.900221519529E+00 -8.946506119637E+00 -8.988477676619E+00
 -9.026159636856E+00 -9.059575930865E+00 -9.088750910553E+00 -9.113709282190E+00
 -9.134476037207E+00 -9.151076383623E+00 -9.163535681502E+00 -9.171879386656E+00
 -9.176133007467E+00 -9.176322080536E+00 -9.172472171538E+00 -9.164608908391E+00
 -9.152758054487E+00 -9.136945630235E+00 -9.117198091669E+00 -9.093542575078E+00
 -9.066007216788E+00 -9.034621557112E+00 -8.999417037107E+00 -8.960427596274E+00
 -8.917690378233E+00 -8.871246550342E+00 -8.821142241310E+00 -8.767429598905E+00
 -8.710167967108E+00 -8.649425178910E+00 -8.585278957202E+00 -8.517818411724E+00
 -8.447145614998E+00 -8.373377234325E+00 -8.296646190448E+00 -8.217103306244E+00
 -8.134918900987E+00 -8.050284277509E+00 -7.963413041168E+00 -7.874542180222E+00
 -7.783932827540E+00 -7.691870616697E+00 -7.598665539011E+00 -7.504651202213E+00
 -7.410183389245E+00 -7.315637816390E+00 -7.221406994896E+00 -7.127896110215E+00
 -7.035517848583E+00 -6.944686122504E+00 -6.855808675024E+00 -6.769278577248E+00
 -6.685464539820E+00 -6.604701816312E+00 -6.526102182660E+00 -6.448420192220E+00
 -6.371692122277E+00 -6.295896858667E+00 -6.221016927813E+00 -6.147035267634E+00
 -6.073953957118E+00 -6.001789950061E+00 -5.930533974610E+00 -5.860163361762E+00
 -5.790665799540E+00 -5.722024147989E+00 -5.654221860508E+00 -5.587242305104E+00
 -5.521069128740E+00 -5.455686501017E+00 -5.391079341393E+00 -5.327233513298E+00
 -5.264135976388E+00 -5.201774888633E+00 -5.140139652064E+00 -5.079220898543E+00