Be    ONCVPSP-3.3.0  r_core=   1.20427   1.05618
4.0000      4.0000      180506    zatom,zion,pspd
8      11   1     4   400     0    pspcod,pspxc,lmax,lloc,mmax,r2well
3.99000000  0.00000000  0.00000000    rchrg fchrg qchrg
2     2     0     0    nproj
3     1           extension_switch
3     0     0    nprojso
0                        -8.3826688883487D+00 -2.9224546094579D+00
1  0.0000000000000D+00  5.7429394573205D-11 -4.5530262893223D-10
2  1.0000000000000D-02  1.1781048541251D-01 -4.3936353003966D-02
3  2.0000000000000D-02  2.3515113564105D-01 -8.7458180122024D-02
4  3.0000000000000D-02  3.5155428302333D-01 -1.3015322956713D-01
5  4.0000000000000D-02  4.6655658672201D-01 -1.7161379249572D-01
6  5.0000000000000D-02  5.7970117557407D-01 -2.1143896122211D-01
7  6.0000000000000D-02  6.9053976621770D-01 -2.4923687118704D-01
8  7.0000000000000D-02  7.9863474818122D-01 -2.8462692071207D-01
9  8.0000000000000D-02  9.0356122756102D-01 -3.1724196211650D-01
10  9.0000000000000D-02  1.0049090208519D+00 -3.4673045722704D-01
11  1.0000000000000D-01  1.1022845904281D+00 -3.7275858968742D-01
12  1.1000000000000D-01  1.1953129131124D+00 -3.9501232579276D-01
13  1.2000000000000D-01  1.2836392732229D+00 -4.1319941485053D-01
14  1.3000000000000D-01  1.3669309714559D+00 -4.2705131932710D-01
15  1.4000000000000D-01  1.4448789409578D+00 -4.3632506429867D-01
16  1.5000000000000D-01  1.5171992619704D+00 -4.4080499501036D-01
17  1.6000000000000D-01  1.5836345665043D+00 -4.4030443068208D-01
18  1.7000000000000D-01  1.6439553246160D+00 -4.3466720210701D-01
19  1.8000000000000D-01  1.6979610040436D+00 -4.2376906009355D-01
20  1.9000000000000D-01  1.7454810951981D+00 -4.0751894142526D-01
21  2.0000000000000D-01  1.7863759938237D+00 -3.8586007877938D-01
22  2.1000000000000D-01  1.8205377340308D+00 -3.5877094097163D-01
23  2.2000000000000D-01  1.8478905648795D+00 -3.2626599000193D-01
24  2.3000000000000D-01  1.8683913642545D+00 -2.8839624167857D-01
25  2.4000000000000D-01  1.8820298844176D+00 -2.4524961710962D-01
26  2.5000000000000D-01  1.8888288243689D+00 -1.9695107308031D-01
27  2.6000000000000D-01  1.8888437249766D+00 -1.4366250029048D-01
28  2.7000000000000D-01  1.8821626837561D+00 -8.5582379610136D-02
29  2.8000000000000D-01  1.8689058871880D+00 -2.2945187922538D-02
30  2.9000000000000D-01  1.8492249595531D+00  4.3979453240704D-02
31  3.0000000000000D-01  1.8233021284295D+00  1.1488789121856D-01
32  3.1000000000000D-01  1.7913492082317D+00  1.8944382078755D-01
33  3.2000000000000D-01  1.7536064044660D+00  2.6727992843288D-01
34  3.3000000000000D-01  1.7103409427200D+00  3.4799980057648D-01
35  3.4000000000000D-01  1.6618455277867D+00  4.3118009146860D-01
36  3.5000000000000D-01  1.6084366397260D+00  5.1637294379005D-01
37  3.6000000000000D-01  1.5504526750849D+00  6.0310865226648D-01
38  3.7000000000000D-01  1.4882519429037D+00  6.9089855780083D-01
39  3.8000000000000D-01  1.4222105265264D+00  7.7923815681703D-01
40  3.9000000000000D-01  1.3527200235817D+00  8.6761040771743D-01
41  4.0000000000000D-01  1.2801851777959D+00  9.5548921362511D-01
42  4.1000000000000D-01  1.2050214175226D+00  1.0423430579503D+00
43  4.2000000000000D-01  1.1276523170060D+00  1.1276387668277D+00
44  4.3000000000000D-01  1.0485069974230D+00  1.2108453701569D+00
45  4.4000000000000D-01  9.6801748565237D-01  1.2914380308822D+00
46  4.5000000000000D-01  8.8661604948969D-01  1.3689020103053D+00
47  4.6000000000000D-01  8.0473252864005D-01  1.4427366356726D+00
48  4.7000000000000D-01  7.2279168127323D-01  1.5124592350460D+00
49  4.8000000000000D-01  6.4121056620135D-01  1.5776090035908D+00
50  4.9000000000000D-01  5.6039598082893D-01  1.6377507649070D+00
51  5.0000000000000D-01  4.8074197492206D-01  1.6924785909293D+00
52  5.1000000000000D-01  4.0262745994202D-01  1.7414192442293D+00
53  5.2000000000000D-01  3.2641393318479D-01  1.7842354072885D+00
54  5.3000000000000D-01  2.5244333526152D-01  1.8206286644818D+00
55  5.4000000000000D-01  1.8103605854844D-01  1.8503422041059D+00
56  5.5000000000000D-01  1.1248912312899D-01  1.8731632098228D+00
57  5.6000000000000D-01  4.7074535457838D-02  1.8889249133244D+00
58  5.7000000000000D-01 -1.4962156499529D-02  1.8975082828701D+00
59  5.8000000000000D-01 -7.3403099543012D-02  1.8988433255704D+00
60  5.9000000000000D-01 -1.2805915261916D-01  1.8929099848461D+00
61  6.0000000000000D-01 -1.7877067693645D-01  1.8797386183796D+00
62  6.1000000000000D-01 -2.2540809250036D-01  1.8594100460196D+00
63  6.2000000000000D-01 -2.6787219690882D-01  1.8320551614787D+00
64  6.3000000000000D-01 -3.0609424448914D-01  1.7978541062370D+00
65  6.4000000000000D-01 -3.4003578613307D-01  1.7570350087315D+00
66  6.5000000000000D-01 -3.6968827251273D-01  1.7098722966982D+00
67  6.6000000000000D-01 -3.9507242567361D-01  1.6566845953051D+00
68  6.7000000000000D-01 -4.1623738628661D-01  1.5978322284386D+00
69  6.8000000000000D-01 -4.3325964609512D-01  1.5337143451652D+00
70  6.9000000000000D-01 -4.4624177724935D-01  1.4647656978483D+00
71  7.0000000000000D-01 -4.5531097228273D-01  1.3914531026536D+00
72  7.1000000000000D-01 -4.6061741041503D-01  1.3142716171520D+00
73  7.2000000000000D-01 -4.6233246764985D-01  1.2337404733736D+00
74  7.3000000000000D-01 -4.6064678973149D-01  1.1503988079155D+00
75  7.4000000000000D-01 -4.5576824843456D-01  1.0648012335343D+00
76  7.5000000000000D-01 -4.4791980284911D-01  9.7751329899864D-01
77  7.6000000000000D-01 -4.3733728828159D-01  8.8910688581301D-01
78  7.7000000000000D-01 -4.2426715610794D-01  8.0015559172000D-01
79  7.8000000000000D-01 -4.0896418836938D-01  7.1123015160499D-01
80  7.9000000000000D-01 -3.9168921109655D-01  6.2289394656828D-01
81  8.0000000000000D-01 -3.7270683027237D-01  5.3569865146935D-01
82  8.1000000000000D-01 -3.5228321400090D-01  4.5018007019023D-01
83  8.2000000000000D-01 -3.3068394383841D-01  3.6685420621415D-01
84  8.3000000000000D-01 -3.0817195737135D-01  2.8621361388421D-01
85  8.4000000000000D-01 -2.8500560300201D-01  2.0872407291706D-01
86  8.5000000000000D-01 -2.6143682653878D-01  1.3482162542533D-01
87  8.6000000000000D-01 -2.3770950760004D-01  6.4910010887941D-02
88  8.7000000000000D-01 -2.1405796204605D-01 -6.4146976007687D-04
89  8.8000000000000D-01 -1.9070562467460D-01 -6.1499634415803D-02
90  8.9000000000000D-01 -1.6786392427547D-01 -1.1736862298971D-01
91  9.0000000000000D-01 -1.4573136086260D-01 -1.6799060729971D-01
92  9.1000000000000D-01 -1.2449279251942D-01 -2.1314599702604D-01
93  9.2000000000000D-01 -1.0431893682934D-01 -2.5265313675881D-01
94  9.3000000000000D-01 -8.5366091868825D-02 -2.8636748635471D-01
95  9.4000000000000D-01 -6.7776065450410D-02 -3.1418033030639D-01
96  9.5000000000000D-01 -5.1676307359252D-02 -3.3601703254903D-01
97  9.6000000000000D-01 -3.7180361425764D-02 -3.5183445239641D-01
98  9.7000000000000D-01 -2.4387377882266D-02 -3.6162179871829D-01
99  9.8000000000000D-01 -1.3376874371399D-02 -3.6541768794082D-01
100  9.9000000000000D-01 -4.1986321961407D-03 -3.6334286630868D-01
101  1.0000000000000D+00  3.1335991500567D-03 -3.5561907265622D-01
102  1.0100000000000D+00  8.6475880586734D-03 -3.4258470386800D-01
103  1.0200000000000D+00  1.2417794361013D-02 -3.2470923270358D-01
104  1.0300000000000D+00  1.4568818638457D-02 -3.0260180616558D-01
105  1.0400000000000D+00  1.5276047739382D-02 -2.7701078183614D-01
106  1.0500000000000D+00  1.4762333643763D-02 -2.4881076812763D-01
107  1.0600000000000D+00  1.3289777177465D-02 -2.1897458519888D-01
108  1.0700000000000D+00  1.1146313422371D-02 -1.8852959889234D-01
109  1.0800000000000D+00  8.6276827854823D-03 -1.5850066278160D-01
110  1.0900000000000D+00  6.0164383147959D-03 -1.2984513735082D-01
111  1.1000000000000D+00  3.5604992432955D-03 -1.0338798046689D-01
112  1.1100000000000D+00  1.4544933636145D-03 -7.9766909886331D-02
113  1.1200000000000D+00 -1.7314553780898D-04 -5.9396476535407D-02
114  1.1300000000000D+00 -1.2653444455209D-03 -4.2456632141418D-02
115  1.1400000000000D+00 -1.8331354145531D-03 -2.8907270012532D-02
116  1.1500000000000D+00 -1.9449571371512D-03 -1.8525041727248D-02
117  1.1600000000000D+00 -1.7111041309095D-03 -1.0954043858780D-02
118  1.1700000000000D+00 -1.2669378151267D-03 -5.7625044790277D-03
119  1.1800000000000D+00 -7.4839022750280D-04 -2.4856540897360D-03
120  1.1900000000000D+00 -3.0490910944356D-04 -6.9778269542788D-04
121  1.2000000000000D+00 -6.2730648774191D-05 -8.2114090917249D-06
122  1.2100000000000D+00  6.3146342927176D-06  7.5535507157086D-05
123  1.2200000000000D+00 -1.0098593783326D-06 -6.5639690128993D-06
124  1.2300000000000D+00 -1.9861807982640D-06 -1.0226804830428D-05
125  1.2400000000000D+00  4.0490650851836D-07  3.9382297784209D-06
126  1.2500000000000D+00  2.1038817558904D-08 -9.0266629492301D-08
127  1.2600000000000D+00  2.8012930070536D-08 -1.2018892091208D-07
128  1.2700000000000D+00  0.0000000000000D+00  0.0000000000000D+00
129  1.2800000000000D+00  0.0000000000000D+00  0.0000000000000D+00
130  1.2900000000000D+00  0.0000000000000D+00  0.0000000000000D+00
131  1.3000000000000D+00  0.0000000000000D+00  0.0000000000000D+00
132  1.3100000000000D+00  0.0000000000000D+00  0.0000000000000D+00
133  1.3200000000000D+00  0.0000000000000D+00  0.0000000000000D+00
134  1.3300000000000D+00  0.0000000000000D+00  0.0000000000000D+00
135  1.3400000000000D+00  0.0000000000000D+00  0.0000000000000D+00
136  1.3500000000000D+00  0.0000000000000D+00  0.0000000000000D+00
137  1.3600000000000D+00  0.0000000000000D+00  0.0000000000000D+00
138  1.3700000000000D+00  0.0000000000000D+00  0.0000000000000D+00
139  1.3800000000000D+00  0.0000000000000D+00  0.0000000000000D+00
140  1.3900000000000D+00  0.0000000000000D+00  0.0000000000000D+00
141  1.4000000000000D+00  0.0000000000000D+00  0.0000000000000D+00
142  1.4100000000000D+00  0.0000000000000D+00  0.0000000000000D+00
143  1.4200000000000D+00  0.0000000000000D+00  0.0000000000000D+00
144  1.4300000000000D+00  0.0000000000000D+00  0.0000000000000D+00
145  1.4400000000000D+00  0.0000000000000D+00  0.0000000000000D+00
146  1.4500000000000D+00  0.0000000000000D+00  0.0000000000000D+00
147  1.4600000000000D+00  0.0000000000000D+00  0.0000000000000D+00
148  1.4700000000000D+00  0.0000000000000D+00  0.0000000000000D+00
149  1.4800000000000D+00  0.0000000000000D+00  0.0000000000000D+00
150  1.4900000000000D+00  0.0000000000000D+00  0.0000000000000D+00
151  1.5000000000000D+00  0.0000000000000D+00  0.0000000000000D+00
152  1.5100000000000D+00  0.0000000000000D+00  0.0000000000000D+00
153  1.5200000000000D+00  0.0000000000000D+00  0.0000000000000D+00
154  1.5300000000000D+00  0.0000000000000D+00  0.0000000000000D+00
155  1.5400000000000D+00  0.0000000000000D+00  0.0000000000000D+00
156  1.5500000000000D+00  0.0000000000000D+00  0.0000000000000D+00
157  1.5600000000000D+00  0.0000000000000D+00  0.0000000000000D+00
158  1.5700000000000D+00  0.0000000000000D+00  0.0000000000000D+00
159  1.5800000000000D+00  0.0000000000000D+00  0.0000000000000D+00
160  1.5900000000000D+00  0.0000000000000D+00  0.0000000000000D+00
161  1.6000000000000D+00  0.0000000000000D+00  0.0000000000000D+00
162  1.6100000000000D+00  0.0000000000000D+00  0.0000000000000D+00
163  1.6200000000000D+00  0.0000000000000D+00  0.0000000000000D+00
164  1.6300000000000D+00  0.0000000000000D+00  0.0000000000000D+00
165  1.6400000000000D+00  0.0000000000000D+00  0.0000000000000D+00
166  1.6500000000000D+00  0.0000000000000D+00  0.0000000000000D+00
167  1.6600000000000D+00  0.0000000000000D+00  0.0000000000000D+00
168  1.6700000000000D+00  0.0000000000000D+00  0.0000000000000D+00
169  1.6800000000000D+00  0.0000000000000D+00  0.0000000000000D+00
170  1.6900000000000D+00  0.0000000000000D+00  0.0000000000000D+00
171  1.7000000000000D+00  0.0000000000000D+00  0.0000000000000D+00
172  1.7100000000000D+00  0.0000000000000D+00  0.0000000000000D+00
173  1.7200000000000D+00  0.0000000000000D+00  0.0000000000000D+00
174  1.7300000000000D+00  0.0000000000000D+00  0.0000000000000D+00
175  1.7400000000000D+00  0.0000000000000D+00  0.0000000000000D+00
176  1.7500000000000D+00  0.0000000000000D+00  0.0000000000000D+00
177  1.7600000000000D+00  0.0000000000000D+00  0.0000000000000D+00
178  1.7700000000000D+00  0.0000000000000D+00  0.0000000000000D+00
179  1.7800000000000D+00  0.0000000000000D+00  0.0000000000000D+00
180  1.7900000000000D+00  0.0000000000000D+00  0.0000000000000D+00
181  1.8000000000000D+00  0.0000000000000D+00  0.0000000000000D+00
182  1.8100000000000D+00  0.0000000000000D+00  0.0000000000000D+00
183  1.8200000000000D+00  0.0000000000000D+00  0.0000000000000D+00
184  1.8300000000000D+00  0.0000000000000D+00  0.0000000000000D+00
185  1.8400000000000D+00  0.0000000000000D+00  0.0000000000000D+00
186  1.8500000000000D+00  0.0000000000000D+00  0.0000000000000D+00
187  1.8600000000000D+00  0.0000000000000D+00  0.0000000000000D+00
188  1.8700000000000D+00  0.0000000000000D+00  0.0000000000000D+00
189  1.8800000000000D+00  0.0000000000000D+00  0.0000000000000D+00
190  1.8900000000000D+00  0.0000000000000D+00  0.0000000000000D+00
191  1.9000000000000D+00  0.0000000000000D+00  0.0000000000000D+00
192  1.9100000000000D+00  0.0000000000000D+00  0.0000000000000D+00
193  1.9200000000000D+00  0.0000000000000D+00  0.0000000000000D+00
194  1.9300000000000D+00  0.0000000000000D+00  0.0000000000000D+00
195  1.9400000000000D+00  0.0000000000000D+00  0.0000000000000D+00
196  1.9500000000000D+00  0.0000000000000D+00  0.0000000000000D+00
197  1.9600000000000D+00  0.0000000000000D+00  0.0000000000000D+00
198  1.9700000000000D+00  0.0000000000000D+00  0.0000000000000D+00
199  1.9800000000000D+00  0.0000000000000D+00  0.0000000000000D+00
200  1.9900000000000D+00  0.0000000000000D+00  0.0000000000000D+00
201  2.0000000000000D+00  0.0000000000000D+00  0.0000000000000D+00
202  2.0100000000000D+00  0.0000000000000D+00  0.0000000000000D+00
203  2.0200000000000D+00  0.0000000000000D+00  0.0000000000000D+00
204  2.0300000000000D+00  0.0000000000000D+00  0.0000000000000D+00
205  2.0400000000000D+00  0.0000000000000D+00  0.0000000000000D+00
206  2.0500000000000D+00  0.0000000000000D+00  0.0000000000000D+00
207  2.0600000000000D+00  0.0000000000000D+00  0.0000000000000D+00
208  2.0700000000000D+00  0.0000000000000D+00  0.0000000000000D+00
209  2.0800000000000D+00  0.0000000000000D+00  0.0000000000000D+00
210  2.0900000000000D+00  0.0000000000000D+00  0.0000000000000D+00
211  2.1000000000000D+00  0.0000000000000D+00  0.0000000000000D+00
212  2.1100000000000D+00  0.0000000000000D+00  0.0000000000000D+00
213  2.1200000000000D+00  0.0000000000000D+00  0.0000000000000D+00
214  2.1300000000000D+00  0.0000000000000D+00  0.0000000000000D+00
215  2.1400000000000D+00  0.0000000000000D+00  0.0000000000000D+00
216  2.1500000000000D+00  0.0000000000000D+00  0.0000000000000D+00
217  2.1600000000000D+00  0.0000000000000D+00  0.0000000000000D+00
218  2.1700000000000D+00  0.0000000000000D+00  0.0000000000000D+00
219  2.1800000000000D+00  0.0000000000000D+00  0.0000000000000D+00
220  2.1900000000000D+00  0.0000000000000D+00  0.0000000000000D+00
221  2.2000000000000D+00  0.0000000000000D+00  0.0000000000000D+00
222  2.2100000000000D+00  0.0000000000000D+00  0.0000000000000D+00
223  2.2200000000000D+00  0.0000000000000D+00  0.0000000000000D+00
224  2.2300000000000D+00  0.0000000000000D+00  0.0000000000000D+00
225  2.2400000000000D+00  0.0000000000000D+00  0.0000000000000D+00
226  2.2500000000000D+00  0.0000000000000D+00  0.0000000000000D+00
227  2.2600000000000D+00  0.0000000000000D+00  0.0000000000000D+00
228  2.2700000000000D+00  0.0000000000000D+00  0.0000000000000D+00
229  2.2800000000000D+00  0.0000000000000D+00  0.0000000000000D+00
230  2.2900000000000D+00  0.0000000000000D+00  0.0000000000000D+00
231  2.3000000000000D+00  0.0000000000000D+00  0.0000000000000D+00
232  2.3100000000000D+00  0.0000000000000D+00  0.0000000000000D+00
233  2.3200000000000D+00  0.0000000000000D+00  0.0000000000000D+00
234  2.3300000000000D+00  0.0000000000000D+00  0.0000000000000D+00
235  2.3400000000000D+00  0.0000000000000D+00  0.0000000000000D+00
236  2.3500000000000D+00  0.0000000000000D+00  0.0000000000000D+00
237  2.3600000000000D+00  0.0000000000000D+00  0.0000000000000D+00
238  2.3700000000000D+00  0.0000000000000D+00  0.0000000000000D+00
239  2.3800000000000D+00  0.0000000000000D+00  0.0000000000000D+00
240  2.3900000000000D+00  0.0000000000000D+00  0.0000000000000D+00
241  2.4000000000000D+00  0.0000000000000D+00  0.0000000000000D+00
242  2.4100000000000D+00  0.0000000000000D+00  0.0000000000000D+00
243  2.4200000000000D+00  0.0000000000000D+00  0.0000000000000D+00
244  2.4300000000000D+00  0.0000000000000D+00  0.0000000000000D+00
245  2.4400000000000D+00  0.0000000000000D+00  0.0000000000000D+00
246  2.4500000000000D+00  0.0000000000000D+00  0.0000000000000D+00
247  2.4600000000000D+00  0.0000000000000D+00  0.0000000000000D+00
248  2.4700000000000D+00  0.0000000000000D+00  0.0000000000000D+00
249  2.4800000000000D+00  0.0000000000000D+00  0.0000000000000D+00
250  2.4900000000000D+00  0.0000000000000D+00  0.0000000000000D+00
251  2.5000000000000D+00  0.0000000000000D+00  0.0000000000000D+00
252  2.5100000000000D+00  0.0000000000000D+00  0.0000000000000D+00
253  2.5200000000000D+00  0.0000000000000D+00  0.0000000000000D+00
254  2.5300000000000D+00  0.0000000000000D+00  0.0000000000000D+00
255  2.5400000000000D+00  0.0000000000000D+00  0.0000000000000D+00
256  2.5500000000000D+00  0.0000000000000D+00  0.0000000000000D+00
257  2.5600000000000D+00  0.0000000000000D+00  0.0000000000000D+00
258  2.5700000000000D+00  0.0000000000000D+00  0.0000000000000D+00
259  2.5800000000000D+00  0.0000000000000D+00  0.0000000000000D+00
260  2.5900000000000D+00  0.0000000000000D+00  0.0000000000000D+00
261  2.6000000000000D+00  0.0000000000000D+00  0.0000000000000D+00
262  2.6100000000000D+00  0.0000000000000D+00  0.0000000000000D+00
263  2.6200000000000D+00  0.0000000000000D+00  0.0000000000000D+00
264  2.6300000000000D+00  0.0000000000000D+00  0.0000000000000D+00
265  2.6400000000000D+00  0.0000000000000D+00  0.0000000000000D+00
266  2.6500000000000D+00  0.0000000000000D+00  0.0000000000000D+00
267  2.6600000000000D+00  0.0000000000000D+00  0.0000000000000D+00
268  2.6700000000000D+00  0.0000000000000D+00  0.0000000000000D+00
269  2.6800000000000D+00  0.0000000000000D+00  0.0000000000000D+00
270  2.6900000000000D+00  0.0000000000000D+00  0.0000000000000D+00
271  2.7000000000000D+00  0.0000000000000D+00  0.0000000000000D+00
272  2.7100000000000D+00  0.0000000000000D+00  0.0000000000000D+00
273  2.7200000000000D+00  0.0000000000000D+00  0.0000000000000D+00
274  2.7300000000000D+00  0.0000000000000D+00  0.0000000000000D+00
275  2.7400000000000D+00  0.0000000000000D+00  0.0000000000000D+00
276  2.7500000000000D+00  0.0000000000000D+00  0.0000000000000D+00
277  2.7600000000000D+00  0.0000000000000D+00  0.0000000000000D+00
278  2.7700000000000D+00  0.0000000000000D+00  0.0000000000000D+00
279  2.7800000000000D+00  0.0000000000000D+00  0.0000000000000D+00
280  2.7900000000000D+00  0.0000000000000D+00  0.0000000000000D+00
281  2.8000000000000D+00  0.0000000000000D+00  0.0000000000000D+00
282  2.8100000000000D+00  0.0000000000000D+00  0.0000000000000D+00
283  2.8200000000000D+00  0.0000000000000D+00  0.0000000000000D+00
284  2.8300000000000D+00  0.0000000000000D+00  0.0000000000000D+00
285  2.8400000000000D+00  0.0000000000000D+00  0.0000000000000D+00
286  2.8500000000000D+00  0.0000000000000D+00  0.0000000000000D+00
287  2.8600000000000D+00  0.0000000000000D+00  0.0000000000000D+00
288  2.8700000000000D+00  0.0000000000000D+00  0.0000000000000D+00
289  2.8800000000000D+00  0.0000000000000D+00  0.0000000000000D+00
290  2.8900000000000D+00  0.0000000000000D+00  0.0000000000000D+00
291  2.9000000000000D+00  0.0000000000000D+00  0.0000000000000D+00
292  2.9100000000000D+00  0.0000000000000D+00  0.0000000000000D+00
293  2.9200000000000D+00  0.0000000000000D+00  0.0000000000000D+00
294  2.9300000000000D+00  0.0000000000000D+00  0.0000000000000D+00
295  2.9400000000000D+00  0.0000000000000D+00  0.0000000000000D+00
296  2.9500000000000D+00  0.0000000000000D+00  0.0000000000000D+00
297  2.9600000000000D+00  0.0000000000000D+00  0.0000000000000D+00
298  2.9700000000000D+00  0.0000000000000D+00  0.0000000000000D+00
299  2.9800000000000D+00  0.0000000000000D+00  0.0000000000000D+00
300  2.9900000000000D+00  0.0000000000000D+00  0.0000000000000D+00
301  3.0000000000000D+00  0.0000000000000D+00  0.0000000000000D+00
302  3.0100000000000D+00  0.0000000000000D+00  0.0000000000000D+00
303  3.0200000000000D+00  0.0000000000000D+00  0.0000000000000D+00
304  3.0300000000000D+00  0.0000000000000D+00  0.0000000000000D+00
305  3.0400000000000D+00  0.0000000000000D+00  0.0000000000000D+00
306  3.0500000000000D+00  0.0000000000000D+00  0.0000000000000D+00
307  3.0600000000000D+00  0.0000000000000D+00  0.0000000000000D+00
308  3.0700000000000D+00  0.0000000000000D+00  0.0000000000000D+00
309  3.0800000000000D+00  0.0000000000000D+00  0.0000000000000D+00
310  3.0900000000000D+00  0.0000000000000D+00  0.0000000000000D+00
311  3.1000000000000D+00  0.0000000000000D+00  0.0000000000000D+00
312  3.1100000000000D+00  0.0000000000000D+00  0.0000000000000D+00
313  3.1200000000000D+00  0.0000000000000D+00  0.0000000000000D+00
314  3.1300000000000D+00  0.0000000000000D+00  0.0000000000000D+00
315  3.1400000000000D+00  0.0000000000000D+00  0.0000000000000D+00
316  3.1500000000000D+00  0.0000000000000D+00  0.0000000000000D+00
317  3.1600000000000D+00  0.0000000000000D+00  0.0000000000000D+00
318  3.1700000000000D+00  0.0000000000000D+00  0.0000000000000D+00
319  3.1800000000000D+00  0.0000000000000D+00  0.0000000000000D+00
320  3.1900000000000D+00  0.0000000000000D+00  0.0000000000000D+00
321  3.2000000000000D+00  0.0000000000000D+00  0.0000000000000D+00
322  3.2100000000000D+00  0.0000000000000D+00  0.0000000000000D+00
323  3.2200000000000D+00  0.0000000000000D+00  0.0000000000000D+00
324  3.2300000000000D+00  0.0000000000000D+00  0.0000000000000D+00
325  3.2400000000000D+00  0.0000000000000D+00  0.0000000000000D+00
326  3.2500000000000D+00  0.0000000000000D+00  0.0000000000000D+00
327  3.2600000000000D+00  0.0000000000000D+00  0.0000000000000D+00
328  3.2700000000000D+00  0.0000000000000D+00  0.0000000000000D+00
329  3.2800000000000D+00  0.0000000000000D+00  0.0000000000000D+00
330  3.2900000000000D+00  0.0000000000000D+00  0.0000000000000D+00
331  3.3000000000000D+00  0.0000000000000D+00  0.0000000000000D+00
332  3.3100000000000D+00  0.0000000000000D+00  0.0000000000000D+00
333  3.3200000000000D+00  0.0000000000000D+00  0.0000000000000D+00
334  3.3300000000000D+00  0.0000000000000D+00  0.0000000000000D+00
335  3.3400000000000D+00  0.0000000000000D+00  0.0000000000000D+00
336  3.3500000000000D+00  0.0000000000000D+00  0.0000000000000D+00
337  3.3600000000000D+00  0.0000000000000D+00  0.0000000000000D+00
338  3.3700000000000D+00  0.0000000000000D+00  0.0000000000000D+00
339  3.3800000000000D+00  0.0000000000000D+00  0.0000000000000D+00
340  3.3900000000000D+00  0.0000000000000D+00  0.0000000000000D+00
341  3.4000000000000D+00  0.0000000000000D+00  0.0000000000000D+00
342  3.4100000000000D+00  0.0000000000000D+00  0.0000000000000D+00
343  3.4200000000000D+00  0.0000000000000D+00  0.0000000000000D+00
344  3.4300000000000D+00  0.0000000000000D+00  0.0000000000000D+00
345  3.4400000000000D+00  0.0000000000000D+00  0.0000000000000D+00
346  3.4500000000000D+00  0.0000000000000D+00  0.0000000000000D+00
347  3.4600000000000D+00  0.0000000000000D+00  0.0000000000000D+00
348  3.4700000000000D+00  0.0000000000000D+00  0.0000000000000D+00
349  3.4800000000000D+00  0.0000000000000D+00  0.0000000000000D+00
350  3.4900000000000D+00  0.0000000000000D+00  0.0000000000000D+00
351  3.5000000000000D+00  0.0000000000000D+00  0.0000000000000D+00
352  3.5100000000000D+00  0.0000000000000D+00  0.0000000000000D+00
353  3.5200000000000D+00  0.0000000000000D+00  0.0000000000000D+00
354  3.5300000000000D+00  0.0000000000000D+00  0.0000000000000D+00
355  3.5400000000000D+00  0.0000000000000D+00  0.0000000000000D+00
356  3.5500000000000D+00  0.0000000000000D+00  0.0000000000000D+00
357  3.5600000000000D+00  0.0000000000000D+00  0.0000000000000D+00
358  3.5700000000000D+00  0.0000000000000D+00  0.0000000000000D+00
359  3.5800000000000D+00  0.0000000000000D+00  0.0000000000000D+00
360  3.5900000000000D+00  0.0000000000000D+00  0.0000000000000D+00
361  3.6000000000000D+00  0.0000000000000D+00  0.0000000000000D+00
362  3.6100000000000D+00  0.0000000000000D+00  0.0000000000000D+00
363  3.6200000000000D+00  0.0000000000000D+00  0.0000000000000D+00
364  3.6300000000000D+00  0.0000000000000D+00  0.0000000000000D+00
365  3.6400000000000D+00  0.0000000000000D+00  0.0000000000000D+00
366  3.6500000000000D+00  0.0000000000000D+00  0.0000000000000D+00
367  3.6600000000000D+00  0.0000000000000D+00  0.0000000000000D+00
368  3.6700000000000D+00  0.0000000000000D+00  0.0000000000000D+00
369  3.6800000000000D+00  0.0000000000000D+00  0.0000000000000D+00
370  3.6900000000000D+00  0.0000000000000D+00  0.0000000000000D+00
371  3.7000000000000D+00  0.0000000000000D+00  0.0000000000000D+00
372  3.7100000000000D+00  0.0000000000000D+00  0.0000000000000D+00
373  3.7200000000000D+00  0.0000000000000D+00  0.0000000000000D+00
374  3.7300000000000D+00  0.0000000000000D+00  0.0000000000000D+00
375  3.7400000000000D+00  0.0000000000000D+00  0.0000000000000D+00
376  3.7500000000000D+00  0.0000000000000D+00  0.0000000000000D+00
377  3.7600000000000D+00  0.0000000000000D+00  0.0000000000000D+00
378  3.7700000000000D+00  0.0000000000000D+00  0.0000000000000D+00
379  3.7800000000000D+00  0.0000000000000D+00  0.0000000000000D+00
380  3.7900000000000D+00  0.0000000000000D+00  0.0000000000000D+00
381  3.8000000000000D+00  0.0000000000000D+00  0.0000000000000D+00
382  3.8100000000000D+00  0.0000000000000D+00  0.0000000000000D+00
383  3.8200000000000D+00  0.0000000000000D+00  0.0000000000000D+00
384  3.8300000000000D+00  0.0000000000000D+00  0.0000000000000D+00
385  3.8400000000000D+00  0.0000000000000D+00  0.0000000000000D+00
386  3.8500000000000D+00  0.0000000000000D+00  0.0000000000000D+00
387  3.8600000000000D+00  0.0000000000000D+00  0.0000000000000D+00
388  3.8700000000000D+00  0.0000000000000D+00  0.0000000000000D+00
389  3.8800000000000D+00  0.0000000000000D+00  0.0000000000000D+00
390  3.8900000000000D+00  0.0000000000000D+00  0.0000000000000D+00
391  3.9000000000000D+00  0.0000000000000D+00  0.0000000000000D+00
392  3.9100000000000D+00  0.0000000000000D+00  0.0000000000000D+00
393  3.9200000000000D+00  0.0000000000000D+00  0.0000000000000D+00
394  3.9300000000000D+00  0.0000000000000D+00  0.0000000000000D+00
395  3.9400000000000D+00  0.0000000000000D+00  0.0000000000000D+00
396  3.9500000000000D+00  0.0000000000000D+00  0.0000000000000D+00
397  3.9600000000000D+00  0.0000000000000D+00  0.0000000000000D+00
398  3.9700000000000D+00  0.0000000000000D+00  0.0000000000000D+00
399  3.9800000000000D+00  0.0000000000000D+00  0.0000000000000D+00
400  3.9900000000000D+00  0.0000000000000D+00  0.0000000000000D+00
1                        -3.1674483448877D+00 -7.6153807526496D-01
1  0.0000000000000D+00 -3.2282639145231D-08  7.2538513570808D-08
2  1.0000000000000D-02  2.0629550806205D-03  1.6328382114996D-03
3  2.0000000000000D-02  8.2647232964367D-03  6.4692481655163D-03
4  3.0000000000000D-02  1.8643276926213D-02  1.4324705471075D-02
5  4.0000000000000D-02  3.3259467337692D-02  2.4897590774973D-02
6  5.0000000000000D-02  5.2193439884364D-02  3.7777918011908D-02
7  6.0000000000000D-02  7.5539750200607D-02  5.2459250211201D-02
8  7.0000000000000D-02  1.0340131353849D-01  6.8353507548467D-02
9  8.0000000000000D-02  1.3588235107220D-01  8.4808299792104D-02
10  9.0000000000000D-02  1.7308052554402D-01  1.0112635126989D-01
11  1.0000000000000D-01  2.1507848256584D-01  1.1658653246577D-01
12  1.1000000000000D-01  2.6193503274536D-01  1.3046596962680D-01
13  1.2000000000000D-01  3.1367622311593D-01  1.4206267333814D-01
14  1.3000000000000D-01  3.7028655377508D-01  1.5071810965354D-01
15  1.4000000000000D-01  4.3170059697171D-01  1.5583913350877D-01
16  1.5000000000000D-01  4.9779527105703D-01  1.5691871394221D-01
17  1.6000000000000D-01  5.6838301079550D-01  1.5355490394656D-01
18  1.7000000000000D-01  6.4320605872795D-01  1.4546754411302D-01
19  1.8000000000000D-01  7.2193207992430D-01  1.3251223784971D-01
20  1.9000000000000D-01  8.0415127502928D-01  1.1469119581351D-01
21  2.0000000000000D-01  8.8937513456687D-01  9.2160617000172D-02
22  2.1000000000000D-01  9.7703694172150D-01  6.5234352151905D-02
23  2.2000000000000D-01  1.0664940920263D+00  3.4383680048217D-02
24  2.3000000000000D-01  1.1570322574172D+00  2.3311694805643D-04
25  2.4000000000000D-01  1.2478713798552D+00 -3.6447728053213D-02
26  2.5000000000000D-01  1.3381734371231D+00 -7.4756145783534D-02
27  2.6000000000000D-01  1.4270518814182D+00 -1.1367197010366D-01
28  2.7000000000000D-01  1.5135826109377D+00 -1.5207658530058D-01
29  2.8000000000000D-01  1.5968162967161D+00 -1.8877492893462D-01
30  2.9000000000000D-01  1.6757918523871D+00 -2.2252004600312D-01
31  3.0000000000000D-01  1.7495508041246D+00 -2.5203968420768D-01
32  3.1000000000000D-01  1.8171522924836D+00 -2.7606436484354D-01
33  3.2000000000000D-01  1.8776884178327D+00 -2.9335632072044D-01
34  3.3000000000000D-01  1.9302996270516D+00 -3.0273866266476D-01
35  3.4000000000000D-01  1.9741898315391D+00 -3.0312412034274D-01
36  3.5000000000000D-01  2.0086409455659D+00 -2.9354270188209D-01
37  3.6000000000000D-01  2.0330265397311D+00 -2.7316763023376D-01
38  3.7000000000000D-01  2.0468243166618D+00 -2.4133894224759D-01
39  3.8000000000000D-01  2.0496271349662D+00 -1.9758417857337D-01
40  3.9000000000000D-01  2.0411523324461D+00 -1.4163564793589D-01
41  4.0000000000000D-01  2.0212491302320D+00 -7.3443816978994D-02
42  4.1000000000000D-01  1.9899039352166D+00  6.8135446439019D-03
43  4.2000000000000D-01  1.9472433982074D+00  9.8726746577513D-02