<?xml version="1.0" encoding="UTF-8" ?>
<psml version="1.1" energy_unit="hartree" length_unit="bohr"
 uuid="a184d180-43c3-11e8-5689-25483ecb6d0e"
 xmlns="http://esl.cecam.org/PSML/ns/1.1">
<provenance creator="ONCVPSP-3.3.0+psml-3.3.0-73 (fully-relativistic)"
 date="2018-04-19">
<annotation action="semilocal-pseudopotential-generation"
 action-cont="projectors-generation" />
<input-file name="oncvpsp-input">
<![CDATA[# atsym z nc nv iexc psfile
Be 4 0 2 4 both
# n l f
1 0 2.0
2 0 2.0
# lmax
1
# l rc ep ncon nbas qcut
0 1.35 0.0 4 8 9.2
1 1.1 0.0 4 8 9.4
# lloc lpopt rc5 dvloc0
4 5 0.95 0.0
# l nproj debl
0 2 1.0
1 2 1.0
# icmod fcfact
0 0.25
# epsh1 epsh2 depsh
-12.0 12.0 0.02
# rlmax drl
4.0 0.01
 0
]]>
</input-file>
</provenance>
<pseudo-atom-spec atomic-label="Be" atomic-number="4" z-pseudo="4"
 flavor="Hamann&apos;s oncvpsp" relativity="dirac" spin-dft="no"
 core-corrections="no">
<annotation pseudo-energy="-13.8179118366" />
<exchange-correlation>
<annotation oncvpsp-xc-code="4" oncvpsp-xc-type="GGA -- Perdew-Burke-Ernzerhof" />
<libxc-info number-of-functionals="2">
<functional name="Perdew, Burke &amp; Ernzerhof (GGA)" type="exchange" id="101" />
<functional name="Perdew, Burke &amp; Ernzerhof (GGA)" type="correlation"
 id="130" />
</libxc-info>
</exchange-correlation>
<valence-configuration total-valence-charge="4">
<shell n="1" l="s" occupation="2" />
<shell n="2" l="s" occupation="2" />
</valence-configuration>
</pseudo-atom-spec>
<grid npts="457">
<annotation type="sampled from oncvpsp log grid"
 recipe="r(i:1..N) = r1*exp(a*(i-1)) + r=0; resampled"
 recipe-cont="r1: scale; a: step" scale="0.125000000000E-03"
 step="0.119285708653E-01" delta="0.500000000000E-02" rmax="44.1813421228" />
<grid-data>
  0.000000000000E+00  5.045089664318E-03  1.007717068006E-02  1.511736293017E-02
  2.012835760545E-02  2.524864506191E-02  3.055809503800E-02  3.568395144868E-02
  4.068727247651E-02  4.584201536434E-02  5.103737331347E-02  5.614775742254E-02
  6.176984548592E-02  6.714908551389E-02  7.299677779476E-02  7.841276441878E-02
  8.423058948002E-02  8.940718115625E-02  9.490191261456E-02  1.007343358937E-01
  1.069252046495E-01  1.121507391337E-01  1.176316503622E-01  1.233804188347E-01
  1.294101349845E-01  1.357345289867E-01  1.423680020228E-01  1.475549990844E-01
  1.529309777861E-01  1.585028234335E-01  1.642776721897E-01  1.702629202147E-01
  1.764662331383E-01  1.828955558777E-01  1.895591228129E-01  1.964654683334E-01
  2.036234377681E-01  2.110421987141E-01  2.161376015599E-01  2.213560278119E-01
  2.267004477474E-01  2.321739033578E-01  2.377795100805E-01  2.435204585719E-01
  2.494000165237E-01  2.554215305226E-01  2.615884279555E-01  2.679042189601E-01
  2.743724984227E-01  2.809969480246E-01  2.877813383377E-01  2.947295309705E-01
  3.018454807663E-01  3.091332380539E-01  3.165969509535E-01  3.242408677373E-01
  3.320693392479E-01  3.400868213747E-01  3.482978775900E-01  3.567071815465E-01
  3.653195197378E-01  3.741397942224E-01  3.831730254141E-01  3.924243549397E-01
  4.018990485653E-01  4.116024991939E-01  4.215402299344E-01  4.265987126936E-01
  4.317178972460E-01  4.368985120129E-01  4.421412941571E-01  4.474469896869E-01
  4.528163535632E-01  4.582501498060E-01  4.637491516036E-01  4.693141414229E-01
  4.749459111199E-01  4.806452620534E-01  4.864130051980E-01  4.922499612604E-01
  4.981569607955E-01  5.041348443251E-01  5.101844624570E-01  5.163066760065E-01
  5.225023561185E-01  5.287723843920E-01  5.351176530047E-01  5.415390648407E-01
  5.480375336188E-01  5.546139840222E-01  5.612693518305E-01  5.680045840525E-01
  5.748206390611E-01  5.817184867298E-01  5.886991085706E-01  5.957634978734E-01
  6.029126598479E-01  6.101476117661E-01  6.174693831073E-01  6.248790157046E-01
  6.323775638930E-01  6.399660946597E-01  6.476456877956E-01  6.554174360492E-01
  6.632824452818E-01  6.712418346252E-01  6.792967366407E-01  6.874482974804E-01
  6.956976770501E-01  7.040460491747E-01  7.124946017648E-01  7.210445369860E-01
  7.296970714298E-01  7.384534362870E-01  7.473148775224E-01  7.562826560527E-01
  7.653580479253E-01  7.745423445004E-01  7.838368526344E-01  7.932428948661E-01
  8.027618096044E-01  8.123949513197E-01  8.221436907355E-01  8.320094150244E-01
  8.419935280047E-01  8.520974503407E-01  8.623226197448E-01  8.726704911817E-01
  8.831425370759E-01  8.937402475208E-01  9.044651304911E-01  9.153187120570E-01
  9.263025366017E-01  9.374181670409E-01  9.486671850454E-01  9.600511912659E-01
  9.715718055611E-01  9.832306672278E-01  9.950294352346E-01  1.006969788457E+00
  1.019053425919E+00  1.031282067030E+00  1.043657451834E+00  1.056181341256E+00
  1.068855517351E+00  1.081681783560E+00  1.094661964962E+00  1.107797908542E+00
  1.121091483444E+00  1.134544581246E+00  1.148159116221E+00  1.161937025615E+00
  1.175880269923E+00  1.189990833162E+00  1.204270723160E+00  1.218721971838E+00
  1.233346635500E+00  1.248146795126E+00  1.263124556667E+00  1.278282051347E+00
  1.293621435963E+00  1.309144893195E+00  1.324854631913E+00  1.340752887496E+00
  1.356841922146E+00  1.373124025212E+00  1.389601513514E+00  1.406276731677E+00
  1.423152052457E+00  1.440229877086E+00  1.457512635611E+00  1.475002787239E+00
  1.492702820685E+00  1.510615254534E+00  1.528742637588E+00  1.547087549239E+00
  1.565652599830E+00  1.584440431028E+00  1.603453716200E+00  1.622695160795E+00
  1.642167502724E+00  1.661873512757E+00  1.681815994910E+00  1.701997786849E+00
  1.722421760291E+00  1.743090821415E+00  1.764007911272E+00  1.785176006207E+00
  1.806598118281E+00  1.828277295701E+00  1.850216623249E+00  1.872419222728E+00
  1.894888253401E+00  1.917626912442E+00  1.940638435391E+00  1.963926096616E+00
  1.987493209775E+00  2.011343128292E+00  2.035479245832E+00  2.059904996782E+00
  2.084623856743E+00  2.109639343024E+00  2.134955015140E+00  2.160574475322E+00
  2.186501369026E+00  2.212739385454E+00  2.239292258080E+00  2.266163765177E+00
  2.293357730359E+00  2.320878023123E+00  2.348728559401E+00  2.376913302113E+00
  2.405436261739E+00  2.434301496880E+00  2.463513114842E+00  2.493075272220E+00
  2.522992175487E+00  2.553268081593E+00  2.583907298572E+00  2.614914186155E+00
  2.646293156389E+00  2.678048674265E+00  2.710185258356E+00  2.742707481457E+00
  2.775619971234E+00  2.808927410889E+00  2.842634539820E+00  2.876746154297E+00
  2.911267108149E+00  2.946202313447E+00  2.981556741208E+00  3.017335422103E+00
  3.053543447168E+00  3.090185968534E+00  3.127268200156E+00  3.164795418558E+00
  3.202772963581E+00  3.241206239144E+00  3.280100714014E+00  3.319461922582E+00
  3.359295465653E+00  3.399607011241E+00  3.440402295375E+00  3.481687122920E+00
  3.523467368395E+00  3.565748976816E+00  3.608537964538E+00  3.651840420112E+00
  3.695662505153E+00  3.740010455215E+00  3.784890580678E+00  3.830309267646E+00
  3.876272978858E+00  3.922788254604E+00  3.969861713659E+00  4.017500054223E+00
  4.065710054874E+00  4.114498575532E+00  4.163872558439E+00  4.213839029140E+00
  4.264405097490E+00  4.315577958659E+00  4.367364894163E+00  4.419773272893E+00
  4.472810552168E+00  4.526484278794E+00  4.580802090140E+00  4.635771715221E+00
  4.691400975804E+00  4.747697787514E+00  4.804670160964E+00  4.862326202895E+00
  4.920674117330E+00  4.979722206738E+00  5.039478873219E+00  5.099952619697E+00
  5.161152051134E+00  5.223085875747E+00  5.285762906256E+00  5.349192061131E+00
  5.413382365865E+00  5.478342954255E+00  5.544083069706E+00  5.610612066543E+00
  5.677939411341E+00  5.746074684278E+00  5.815027580489E+00  5.884807911455E+00
  5.955425606392E+00  6.026890713669E+00  6.099213402233E+00  6.172403963060E+00
  6.246472810616E+00  6.321430484344E+00  6.397287650156E+00  6.474055101958E+00
  6.551743763181E+00  6.630364688340E+00  6.709929064600E+00  6.790448213375E+00
  6.871933591935E+00  6.954396795039E+00  7.037849556579E+00  7.122303751258E+00
  7.207771396273E+00  7.294264653028E+00  7.381795828865E+00  7.470377378811E+00
  7.560021907357E+00  7.650742170245E+00  7.742551076288E+00  7.835461689203E+00
  7.929487229474E+00  8.024641076228E+00  8.120936769142E+00  8.218388010372E+00
  8.317008666496E+00  8.416812770494E+00  8.517814523740E+00  8.620028298025E+00
  8.723468637602E+00  8.828150261253E+00  8.934088064388E+00  9.041297121160E+00
  9.149792686614E+00  9.259590198854E+00  9.370705281240E+00  9.483153744615E+00
  9.596951589550E+00  9.712115008625E+00  9.828660388728E+00  9.946604313393E+00
  1.006596356515E+01  1.018675512794E+01  1.030899618947E+01  1.043270414374E+01
  1.055789659347E+01  1.068459135259E+01  1.081280644882E+01  1.094256012621E+01
  1.107387084772E+01  1.120675729790E+01  1.134123838547E+01  1.147733324610E+01
  1.161506124505E+01  1.175444197999E+01  1.189549528375E+01  1.203824122715E+01
  1.218270012188E+01  1.232889252334E+01  1.247683923362E+01  1.262656130443E+01
  1.277808004008E+01  1.293141700056E+01  1.308659400457E+01  1.324363313262E+01
  1.340255673021E+01  1.356338741098E+01  1.372614805991E+01  1.389086183663E+01
  1.405755217867E+01  1.422624280481E+01  1.439695771847E+01  1.456972121109E+01
  1.474455786562E+01  1.492149256001E+01  1.510055047073E+01  1.528175707638E+01
  1.546513816130E+01  1.565071981923E+01  1.583852845706E+01  1.602859079855E+01
  1.622093388813E+01  1.641558509479E+01  1.661257211592E+01  1.681192298131E+01
  1.701366605709E+01  1.721783004978E+01  1.742444401037E+01  1.763353733850E+01
  1.784513978656E+01  1.805928146400E+01  1.827599284157E+01  1.849530475566E+01
  1.871724841273E+01  1.894185539369E+01  1.916915765841E+01  1.939918755031E+01
  1.963197780091E+01  1.986756153453E+01  2.010597227294E+01  2.034724394022E+01
  2.059141086750E+01  2.083850779791E+01  2.108856989148E+01  2.134163273018E+01
  2.159773232294E+01  2.185690511082E+01  2.211918797215E+01  2.238461822781E+01
  2.265323364655E+01  2.292507245031E+01  2.320017331971E+01  2.347857539955E+01
  2.376031830434E+01  2.404544212399E+01  2.433398742948E+01  2.462599527863E+01
  2.492150722198E+01  2.522056530864E+01  2.552321209235E+01  2.582949063745E+01
  2.613944452510E+01  2.645311785940E+01  2.677055527372E+01  2.709180193700E+01
  2.741690356025E+01  2.774590640297E+01  2.807885727980E+01  2.841580356716E+01
  2.875679320997E+01  2.910187472849E+01  2.945109722523E+01  2.980451039193E+01
  3.016216451664E+01  3.052411049083E+01  3.089039981672E+01  3.126108461453E+01
  3.163621762990E+01  3.201585224146E+01  3.240004246836E+01  3.278884297798E+01
  3.318230909371E+01  3.358049680284E+01  3.398346276447E+01  3.439126431764E+01
  3.480395948946E+01  3.522160700333E+01  3.564426628737E+01  3.607199748282E+01
  3.650486145261E+01  3.694291979004E+01  3.738623482752E+01  3.783486964545E+01
  3.828888808120E+01  3.874835473817E+01  3.921333499503E+01  3.968389501497E+01
  4.016010175515E+01  4.064202297621E+01  4.112972725193E+01  4.162328397895E+01
  4.212276338670E+01  4.262823654734E+01  4.313977538591E+01  4.365745269054E+01
  4.418134212282E+01
</grid-data>
</grid>
<valence-charge total-charge="4" is-unscreening-charge="yes"
 rescaled-to-z-pseudo="no">
<radfunc>
<data npts="457">
  6.009302140169E+01  6.008417236741E+01  6.005772382658E+01  6.001361388785E+01
  5.995231787925E+01  5.987177662285E+01  5.976922076927E+01  5.965191327420E+01
  5.952017644507E+01  5.936676811840E+01  5.919413144688E+01  5.900682452772E+01
  5.878092203879E+01  5.854553740708E+01  5.826858555860E+01  5.799277554084E+01
  5.767614217126E+01  5.737696469157E+01  5.704174344966E+01  5.666639936453E+01
  5.624646212221E+01  5.587514022242E+01  5.546947115888E+01  5.502658692879E+01
  5.454344454556E+01  5.401682959398E+01  5.344336378900E+01  5.298040046017E+01
  5.248756161186E+01  5.196327164964E+01  5.140592590100E+01  5.081389955653E+01
  5.018555845896E+01  4.951927195136E+01  4.881342800197E+01  4.806645082509E+01
  4.727682121366E+01  4.644309978728E+01  4.586212643620E+01  4.526059858230E+01
  4.463818442703E+01  4.399458775311E+01  4.332955278360E+01  4.264286933522E+01
  4.193437825805E+01  4.120397714885E+01  4.045162631954E+01  3.967735499606E+01
  3.888126771551E+01  3.806355088139E+01  3.722447942797E+01  3.636442353498E+01
  3.548385532330E+01  3.458335545104E+01  3.366361951738E+01  3.272546416932E+01
  3.176983279348E+01  3.079780066226E+01  2.981057939132E+01  2.880952055288E+01
  2.779611827869E+01  2.677201067682E+01  2.573897987922E+01  2.469895053249E+01
  2.365398654341E+01  2.260628589406E+01  2.155817335029E+01  2.103472147100E+01
  2.051209090185E+01  1.999060324459E+01  1.947058579430E+01  1.895237102635E+01
  1.843629604233E+01  1.792270197498E+01  1.741193335216E+01  1.690433742021E+01
  1.640026342744E+01  1.590006186831E+01  1.540408368990E+01  1.491267946178E+01
  1.442619851128E+01  1.394498802627E+01  1.346939212794E+01  1.299975091642E+01
  1.253639949249E+01  1.207966695899E+01  1.162987540585E+01  1.118733888324E+01
  1.075236236733E+01  1.032524072402E+01  9.906257675843E+00  9.495684777955E+00
  9.093780409188E+00  8.700788784553E+00  8.316938995762E+00  7.942444086531E+00
  7.577500169600E+00  7.222285592499E+00  6.876960159100E+00  6.541664414010E+00
  6.216518996725E+00  5.901624072308E+00  5.597058845108E+00  5.302881161675E+00
  5.019127208640E+00  4.745811310775E+00  4.482925833885E+00  4.230441196463E+00
  3.988305993286E+00  3.756447233260E+00  3.534770692871E+00  3.323161385623E+00
  3.121484146733E+00  2.929584331258E+00  2.747288622647E+00  2.574405947548E+00
  2.410728491457E+00  2.256032808668E+00  2.110081018756E+00  1.972622080762E+00
  1.843393135171E+00  1.722120902814E+00  1.608523128998E+00  1.502310060398E+00
  1.403185941741E+00  1.310850518813E+00  1.225000534185E+00  1.145331201946E+00
  1.071537647940E+00  1.003316302374E+00  9.403662322406E-01  8.823904018098E-01
  8.290968504408E-01  7.801997781406E-01  7.354205306722E-01  6.944884775174E-01
  6.571417776449E-01  6.231280297699E-01  5.922048055878E-01  5.641400663000E-01
  5.387124645856E-01  5.157115359718E-01  4.949377852650E-01  4.762026752973E-01
  4.593285266749E-01  4.441483384520E-01  4.305055406501E-01  4.182536902639E-01
  4.072561228136E-01  3.973855715797E-01  3.885237663906E-01  3.805610232104E-01
  3.733958347965E-01  3.669344713863E-01  3.610905987365E-01  3.557849189146E-01
  3.509448370686E-01  3.465041550574E-01  3.424027903853E-01  3.385865164845E-01
  3.350067181430E-01  3.316201539402E-01  3.283887160695E-01  3.252791770483E-01
  3.222629126538E-01  3.193154650384E-01  3.164155793696E-01  3.135440062760E-01
  3.106833314596E-01  3.078179315292E-01  3.049338440165E-01  3.020186779939E-01
  2.990615237792E-01  2.960528675090E-01  2.929845096439E-01  2.898494870715E-01
  2.866419985328E-01  2.833573331322E-01  2.799918017227E-01  2.765426709851E-01
  2.730081000359E-01  2.693870794217E-01  2.656793723699E-01  2.618854581860E-01
  2.580064776967E-01  2.540441806581E-01  2.500008750556E-01  2.458793782379E-01
  2.416829698370E-01  2.374153464334E-01  2.330805779367E-01  2.286830656561E-01
  2.242275020399E-01  2.197188320700E-01  2.151622162946E-01  2.105629954901E-01
  2.059266569389E-01  2.012588023115E-01  1.965651171418E-01  1.918513418818E-01
  1.871232445203E-01  1.823865947491E-01  1.776471396598E-01  1.729105809476E-01
  1.681825536028E-01  1.634686060629E-01  1.587741818000E-01  1.541046023139E-01
  1.494650515023E-01  1.448605613735E-01  1.402959990697E-01  1.357760551657E-01
  1.313052332047E-01  1.268878404357E-01  1.225279797123E-01  1.182295425132E-01
  1.139962030449E-01  1.098314133843E-01  1.057383996208E-01  1.017201589555E-01
  9.777945771635E-02  9.391883024615E-02  9.014057862426E-02  8.644677317896E-02
  8.283925375130E-02  7.931963167059E-02  7.588929240293E-02  7.254939883529E-02
  6.930089515855E-02  6.614451131446E-02  6.308076797220E-02  6.010998200175E-02
  5.723227241204E-02  5.444756672292E-02  5.175560774062E-02  4.915596070697E-02
  4.664802079260E-02  4.423102090471E-02  4.190403977919E-02  3.966601032658E-02
  3.751572819852E-02  3.545186055254E-02  3.347295495747E-02  3.157744843097E-02
  2.976367655801E-02  2.802988265542E-02  2.637422694402E-02  2.479479568832E-02
  2.328961026394E-02  2.185663611224E-02  2.049379154262E-02  1.919895634325E-02
  1.796998016292E-02  1.680469062804E-02  1.570090116164E-02  1.465641847354E-02
  1.366904969446E-02  1.273660912994E-02  1.185692461382E-02  1.102784344496E-02
  1.024723789471E-02  9.513010276674E-03  8.823097574327E-03  8.175475625799E-03
  7.568162868678E-03  6.999223651255E-03  6.466771119656E-03  5.968969693184E-03
  5.504037142681E-03  5.070246288932E-03  4.665926339932E-03  4.289463887324E-03
  3.939303583500E-03  3.613948521626E-03  3.311960341405E-03  3.031959083581E-03
  2.772622816143E-03  2.532687054878E-03  2.310944000354E-03  2.106241612877E-03
  1.917482545592E-03  1.743622955607E-03  1.583671211181E-03  1.436686512068E-03
  1.301777438894E-03  1.178100445980E-03  1.064858310753E-03  9.612985515573E-04
  8.667118244296E-04  7.804303081640E-04  7.018260858690E-04  6.303095301485E-04
  5.653276980831E-04  5.063627413171E-04  4.529303357917E-04  4.045781349942E-04
  3.608842500199E-04  3.214557592523E-04  2.859272500575E-04  2.539593945469E-04
  2.252375611806E-04  1.994704637444E-04  1.763888490406E-04  1.557442244611E-04
  1.373076264609E-04  1.208684308169E-04  1.062332054223E-04  9.322460624313E-05
  8.168031693042E-05  7.145203245072E-05  6.240448695883E-05  5.441452599548E-05
  4.737022294652E-05  4.117003955160E-05  3.572203010149E-05  3.094308881475E-05
  2.675823973988E-05  2.309996838940E-05  1.990759418004E-05  1.712668263010E-05
  1.470849615240E-05  1.260948218054E-05  1.079079727835E-05  9.217865807869E-06
  7.859971670818E-06  6.689881591644E-06  5.683498377414E-06  4.819542570011E-06
  4.079260899110E-06  3.446159949205E-06  2.905763469755E-06  2.445391783233E-06
  2.053961780451E-06  1.721806034892E-06  1.440509616749E-06  1.202763241907E-06
  1.002231450052E-06  8.334345684838E-07  6.916432830981E-07  5.727847043737E-07
  4.733588834192E-07  3.903648002909E-07  3.212349133525E-07  2.637774237863E-07
  2.161254730210E-07  1.766925523992E-07  1.441334635391E-07  1.173102243021E-07
  9.526236884372E-08  7.718114079659E-08  6.238712609939E-08  5.031091633491E-08
  4.047643466778E-08  3.248659462628E-08  2.601099712456E-08  2.077540336903E-08
  1.655275075185E-08  1.315550563781E-08  1.042917124133E-08  8.246790717814E-09
  6.504305312918E-09  5.116645081232E-09  4.014445456789E-09  3.141296985098E-09
  2.451447957856E-09  1.907890669765E-09  1.480771677820E-09  1.146074915520E-09
  8.845339183313E-10  6.807358647939E-10  5.223857341002E-10  3.997037217131E-10
  3.049332273583E-10  2.319403145271E-10  1.758886098002E-10  1.329762291059E-10
  1.002235449264E-10  7.530249566546E-11  5.639973223602E-11  4.210723840498E-11
  3.133518661654E-11  2.324273152086E-11  1.718322683991E-11  1.266100147322E-11
  9.297368612669E-12  6.803984955737E-12  4.962041201162E-12  3.606062967900E-12
  2.611344231877E-12  1.884232759579E-12  1.354646792642E-12  9.703310920414E-13
  6.924639811975E-13  4.923098989016E-13  3.486780564909E-13  2.460002886346E-13
  1.728827266984E-13  1.210186661948E-13  8.437570679541E-14  5.859034637872E-14
  4.051886820353E-14  2.790550611043E-14  1.913825576110E-14  1.306991875247E-14
  8.887496989011E-15  6.017273910057E-15  4.056124239013E-15  2.722018107052E-15
  1.818510966329E-15  1.209379409365E-15  8.005846126572E-16  5.275042124529E-16
  3.459348851334E-16  2.257812819783E-16  1.466498992268E-16  9.478741291565E-17
  6.096339376377E-17  3.901317930046E-17  2.483997616168E-17  1.573483081571E-17
  9.915562629379E-18  6.215701008079E-18  3.875725249322E-18  2.403688694093E-18
  1.482646965790E-18  9.095009555611E-19  5.548117777663E-19  3.365395922095E-19
  2.029762114751E-19  1.217146135578E-19  7.256021960668E-20  4.300136804578E-20
  0.000000000000E+00  0.000000000000E+00  0.000000000000E+00  0.000000000000E+00
  0.000000000000E+00  0.000000000000E+00  0.000000000000E+00  0.000000000000E+00
  0.000000000000E+00  0.000000000000E+00  0.000000000000E+00  0.000000000000E+00
  0.000000000000E+00  0.000000000000E+00  0.000000000000E+00  0.000000000000E+00
  0.000000000000E+00  0.000000000000E+00  0.000000000000E+00  0.000000000000E+00
  0.000000000000E+00  0.000000000000E+00  0.000000000000E+00  0.000000000000E+00
  0.000000000000E+00
</data>
</radfunc>
</valence-charge>
<semilocal-potentials set="scalar_relativistic">
<slps n="1" l="s" rc="1.35684192215">
<radfunc>
<data npts="256">
 -1.676755422000E+01 -1.676691426744E+01 -1.676500138016E+01 -1.676181044153E+01
 -1.675737478981E+01 -1.675154385535E+01 -1.674411479391E+01 -1.673561109758E+01
 -1.672605361295E+01 -1.671491329374E+01 -1.670236277725E+01 -1.668872880398E+01
 -1.667226147755E+01 -1.665507432837E+01 -1.663481362677E+01 -1.661459398813E+01
 -1.659132773480E+01 -1.656928964311E+01 -1.654453160306E+01 -1.651672625998E+01
 -1.648550861336E+01 -1.645780586503E+01 -1.642743061821E+01 -1.639413318412E+01
 -1.635764171585E+01 -1.631766036028E+01 -1.627386725516E+01 -1.623831151649E+01
 -1.620025655873E+01 -1.615953328264E+01 -1.611596168153E+01 -1.606935015467E+01
 -1.601949477469E+01 -1.596617850608E+01 -1.590917037187E+01 -1.584822456582E+01
 -1.578307950776E+01 -1.571345684056E+01 -1.566440866594E+01 -1.561314679345E+01
 -1.555957492781E+01 -1.550359271515E+01 -1.544509557862E+01 -1.538397454910E+01
 -1.532011609159E+01 -1.525340192744E+01 -1.518370885284E+01 -1.511090855428E+01
 -1.503486742130E+01 -1.495544635737E+01 -1.487250058966E+01 -1.478587947844E+01
 -1.469542632705E+01 -1.460097819348E+01 -1.450236570442E+01 -1.439941287278E+01
 -1.429193691957E+01 -1.417974810077E+01 -1.406264953954E+01 -1.394043706359E+01
 -1.381289904666E+01 -1.367981625188E+01 -1.354096167309E+01 -1.339610036776E+01
 -1.324498927203E+01 -1.308737698414E+01 -1.292300349720E+01 -1.283819761659E+01
 -1.275159985607E+01 -1.266317512413E+01 -1.257288770581E+01 -1.248070123985E+01
 -1.238657869248E+01 -1.229048232740E+01 -1.219237367186E+01 -1.209221347829E+01
 -1.198996168151E+01 -1.188557735143E+01 -1.177901864138E+01 -1.167024273255E+01
 -1.155920577535E+01 -1.144586282886E+01 -1.133016780032E+01 -1.121207338700E+01
 -1.109153102386E+01 -1.096849084124E+01 -1.084290163780E+01 -1.071471087534E+01
 -1.058386470312E+01 -1.045030802080E+01 -1.031398459030E+01 -1.017483720795E+01
 -1.003280794965E+01 -9.887838502011E+00 -9.739870592988E+00 -9.588846535422E+00
 -9.434709895749E+00 -9.277406298892E+00 -9.116884377933E+00 -8.953096874138E+00
 -8.786001889160E+00 -8.615564286839E+00 -8.441757237200E+00 -8.264563890181E+00
 -8.083979161612E+00 -7.900011609351E+00 -7.712685373502E+00 -7.522042151753E+00
 -7.328143179223E+00 -7.131071182149E+00 -6.930932276284E+00 -6.727857784169E+00
 -6.522005950268E+00 -6.313563539174E+00 -6.102747309322E+00 -5.889805362484E+00
 -5.675018377187E+00 -5.458700741784E+00 -5.241201609591E+00 -5.022905904242E+00
 -4.804235308043E+00 -4.585649270125E+00 -4.367646075392E+00 -4.150764020895E+00
 -3.935582755455E+00 -3.722724853271E+00 -3.512857715611E+00 -3.306695928407E+00
 -3.105004247872E+00 -2.908601436580E+00 -2.718365215353E+00 -2.535238602059E+00
 -2.360237820504E+00 -2.194461684190E+00 -2.039101741077E+00 -1.895451301776E+00
 -1.764909537523E+00 -1.648973983298E+00 -1.549211200626E+00 -1.467191984388E+00
 -1.404376588835E+00 -1.361940877839E+00 -1.340550781579E+00 -1.340122267837E+00
 -1.359640981347E+00 -1.397139436506E+00 -1.449909916392E+00 -1.514950243284E+00
 -1.589522391891E+00 -1.671621122165E+00 -1.760168179177E+00 -1.854866279529E+00
 -1.955792120680E+00 -2.062895200574E+00 -2.175567415735E+00 -2.292382566901E+00
 -2.411023123389E+00 -2.528351854019E+00 -2.640562735501E+00 -2.743352881630E+00
 -2.832079503148E+00 -2.901888829493E+00 -2.947820010030E+00 -2.964896095400E+00
 -2.948204889548E+00 -2.913060984848E+00 -2.878520747854E+00 -2.844386608210E+00
 -2.810659486498E+00 -2.777331682150E+00 -2.744399073538E+00 -2.711856916479E+00
 -2.679700596026E+00 -2.647925546802E+00 -2.616527255488E+00 -2.585501260707E+00
 -2.554843152678E+00 -2.524548572842E+00 -2.494613213453E+00 -2.465032817132E+00
 -2.435803176407E+00 -2.406920133227E+00 -2.378379578470E+00 -2.350177451443E+00
 -2.322309739373E+00 -2.294772476895E+00 -2.267561745532E+00 -2.240673673187E+00
 -2.214104433614E+00 -2.187850245907E+00 -2.161907373978E+00 -2.136272126042E+00
 -2.110940854101E+00 -2.085909953435E+00 -2.061175862089E+00 -2.036735060374E+00
 -2.012584070364E+00 -1.988719455402E+00 -1.965137819606E+00 -1.941835807388E+00
 -1.918810102973E+00 -1.896057429924E+00 -1.873574550672E+00 -1.851358266057E+00
 -1.829405414864E+00 -1.807712873378E+00 -1.786277554933E+00 -1.765096409470E+00
 -1.744166423106E+00 -1.723484617701E+00 -1.703048050432E+00 -1.682853813377E+00
 -1.662899033097E+00 -1.643180870226E+00 -1.623696519071E+00 -1.604443207209E+00
 -1.585418195090E+00 -1.566618775654E+00 -1.548042273938E+00 -1.529686046699E+00
 -1.511547482039E+00 -1.493623999030E+00 -1.475913047348E+00 -1.458412106911E+00
 -1.441118687517E+00 -1.424030328495E+00 -1.407144598348E+00 -1.390459094411E+00
 -1.373971442507E+00 -1.357679296611E+00 -1.341580338511E+00 -1.325672277483E+00
 -1.309952849959E+00 -1.294419819210E+00 -1.279070975022E+00 -1.263904133386E+00
 -1.248917136181E+00 -1.234107850872E+00 -1.219474170201E+00 -1.205014011923E+00
 -1.190725318372E+00 -1.176606056409E+00 -1.162654216914E+00 -1.148867814604E+00
 -1.135244887733E+00 -1.121783497809E+00 -1.108481729320E+00 -1.095337689467E+00
 -1.082349507891E+00 -1.069515336407E+00 -1.056833348747E+00 -1.044301740297E+00
 -1.031918727843E+00 -1.019682549316E+00 -1.007591463546E+00 -9.956437500108E-01
</data>
</radfunc>
</slps>
<slps n="2" l="p" rc="1.10779790854">
<radfunc>
<data npts="256">
 -1.164147477579E+01 -1.164108116636E+01 -1.163990433285E+01 -1.163794022263E+01
 -1.163520787318E+01 -1.163161234698E+01 -1.162702530719E+01 -1.162176641119E+01
 -1.161584523010E+01 -1.160892929833E+01 -1.160111972566E+01 -1.159261418398E+01
 -1.158231089272E+01 -1.157152214157E+01 -1.155875823011E+01 -1.154597099018E+01
 -1.153119655330E+01 -1.151714272494E+01 -1.150128606119E+01 -1.148339224751E+01
 -1.146319581725E+01 -1.144517991587E+01 -1.142532622647E+01 -1.140344421150E+01
 -1.137932320542E+01 -1.135273032602E+01 -1.132340822097E+01 -1.129945568903E+01
 -1.127367805212E+01 -1.124593475179E+01 -1.121607469076E+01 -1.118393562000E+01
 -1.114934355047E+01 -1.111211221081E+01 -1.107204257780E+01 -1.102892251241E+01
 -1.098252654183E+01 -1.093261583593E+01 -1.089726550295E+01 -1.086016354752E+01
 -1.082122979385E+01 -1.078038183791E+01 -1.073753524372E+01 -1.069260378915E+01
 -1.064549976696E+01 -1.059613434654E+01 -1.054441800194E+01 -1.049026101143E+01
 -1.043357403351E+01 -1.037426876356E+01 -1.031225867421E+01 -1.024745984123E+01
 -1.017979185514E+01 -1.010917881598E+01 -1.003555040649E+01 -9.958843034843E+00
 -9.879001034647E+00 -9.795977904491E+00 -9.709737564164E+00 -9.620255598078E+00
 -9.527520449367E+00 -9.431534520245E+00 -9.332315125684E+00 -9.229895238459E+00
 -9.124323954184E+00 -9.015666595779E+00 -8.904004367839E+00 -8.847075940035E+00
 -8.789433463871E+00 -8.731091052826E+00 -8.672063523977E+00 -8.612366307008E+00
 -8.552015339141E+00 -8.491026945341E+00 -8.429417703311E+00 -8.367204292850E+00
 -8.304403329464E+00 -8.241031182239E+00 -8.177103776441E+00 -8.112636381628E+00
 -8.047643386545E+00 -7.982138062732E+00 -7.916132319410E+00 -7.849636453040E+00
 -7.782658895931E+00 -7.715205969247E+00 -7.647281647009E+00 -7.578887338822E+00
 -7.510021700434E+00 -7.440680482403E+00 -7.370856428413E+00 -7.300539235734E+00
 -7.229715591121E+00 -7.158369295764E+00 -7.086481492787E+00 -7.014031009981E+00
 -6.940994828927E+00 -6.867348689286E+00 -6.793067833724E+00 -6.718127894717E+00
 -6.642505919392E+00 -6.566181522623E+00 -6.489138152173E+00 -6.411364442736E+00
 -6.332855628863E+00 -6.253614980112E+00 -6.173655215760E+00 -6.092999851570E+00
 -6.011684427573E+00 -5.929757564119E+00 -5.847281793710E+00 -5.764334118588E+00
 -5.681006248723E+00 -5.597404481721E+00 -5.513649195131E+00 -5.429873932422E+00
 -5.346224076302E+00 -5.262855116828E+00 -5.179930536723E+00 -5.097619352487E+00
 -5.016093367451E+00 -4.935524212434E+00 -4.856080271992E+00 -4.777923620872E+00
 -4.701207127807E+00 -4.626071924603E+00 -4.552645489408E+00 -4.481040655774E+00
 -4.411355932605E+00 -4.343677598936E+00 -4.278084106550E+00 -4.214653351469E+00
 -4.153473303617E+00 -4.094656213485E+00 -4.038355993104E+00 -3.984787188725E+00
 -3.934241994353E+00 -3.887098853876E+00 -3.843812548149E+00 -3.804872201292E+00
 -3.770712617943E+00 -3.741569659484E+00 -3.717286693519E+00 -3.697108813386E+00
 -3.679538300769E+00 -3.662348370544E+00 -3.642832352865E+00 -3.618284353931E+00
 -3.588928052768E+00 -3.555888714376E+00 -3.518762713180E+00 -3.477960747964E+00
 -3.434457870345E+00 -3.389463558892E+00 -3.344121488876E+00 -3.299315943618E+00
 -3.255602444960E+00 -3.213235561777E+00 -3.172248425026E+00 -3.132542673975E+00
 -3.093963161170E+00 -3.056347939870E+00 -3.019554986249E+00 -2.983472774613E+00
 -2.948010310567E+00 -2.913060984848E+00 -2.878520747854E+00 -2.844386608210E+00
 -2.810659486498E+00 -2.777331682150E+00 -2.744399073538E+00 -2.711856916479E+00
 -2.679700596026E+00 -2.647925546802E+00 -2.616527255488E+00 -2.585501260707E+00
 -2.554843152678E+00 -2.524548572842E+00 -2.494613213453E+00 -2.465032817132E+00
 -2.435803176407E+00 -2.406920133227E+00 -2.378379578470E+00 -2.350177451443E+00
 -2.322309739373E+00 -2.294772476895E+00 -2.267561745532E+00 -2.240673673187E+00
 -2.214104433614E+00 -2.187850245907E+00 -2.161907373978E+00 -2.136272126042E+00
 -2.110940854101E+00 -2.085909953435E+00 -2.061175862089E+00 -2.036735060374E+00
 -2.012584070364E+00 -1.988719455402E+00 -1.965137819606E+00 -1.941835807388E+00
 -1.918810102973E+00 -1.896057429924E+00 -1.873574550672E+00 -1.851358266057E+00