<?xml version="1.0" encoding="UTF-8" ?>
<psml version="1.1" energy_unit="hartree" length_unit="bohr"
 uuid="cb70d6c0-5155-11e8-5943-1f04bbf30ba7"
 xmlns="http://esl.cecam.org/PSML/ns/1.1">
<provenance creator="ONCVPSP-3.3.0+psml-3.3.0-73 (fully-relativistic)"
 date="2018-05-06">
<annotation action="semilocal-pseudopotential-generation"
 action-cont="projectors-generation" />
<input-file name="oncvpsp-input">
<![CDATA[# atsym z nc nv iexc psfile
Be 4 0 2 4 both
# n l f
1 0 2.0
2 0 2.0
# lmax
1
# l rc ep ncon nbas qcut
0 1.2 0.0 4 7 10.4
1 1.05 0.0 4 7 10.0
# lloc lpopt rc5 dvloc0
4 5 0.95 0.0
# l nproj debl
0 2 1.0
1 2 1.0
# icmod fcfact
0 0.25
# epsh1 epsh2 depsh
-12.0 12.0 0.02
# rlmax drl
4.0 0.01
 0
]]>
</input-file>
</provenance>
<pseudo-atom-spec atomic-label="Be" atomic-number="4" z-pseudo="4"
 flavor="Hamann&apos;s oncvpsp" relativity="dirac" spin-dft="no"
 core-corrections="no">
<annotation pseudo-energy="-13.9992999608" />
<exchange-correlation>
<annotation oncvpsp-xc-code="4" oncvpsp-xc-type="GGA -- Perdew-Burke-Ernzerhof" />
<libxc-info number-of-functionals="2">
<functional name="Perdew, Burke &amp; Ernzerhof (GGA)" type="exchange" id="101" />
<functional name="Perdew, Burke &amp; Ernzerhof (GGA)" type="correlation"
 id="130" />
</libxc-info>
</exchange-correlation>
<valence-configuration total-valence-charge="4">
<shell n="1" l="s" occupation="2" />
<shell n="2" l="s" occupation="2" />
</valence-configuration>
</pseudo-atom-spec>
<grid npts="457">
<annotation type="sampled from oncvpsp log grid"
 recipe="r(i:1..N) = r1*exp(a*(i-1)) + r=0; resampled"
 recipe-cont="r1: scale; a: step" scale="0.125000000000E-03"
 step="0.119285708653E-01" delta="0.500000000000E-02" rmax="44.1813421228" />
<grid-data>
  0.000000000000E+00  5.045089664318E-03  1.007717068006E-02  1.511736293017E-02
  2.012835760545E-02  2.524864506191E-02  3.055809503800E-02  3.568395144868E-02
  4.068727247651E-02  4.584201536434E-02  5.103737331347E-02  5.614775742254E-02
  6.176984548592E-02  6.714908551389E-02  7.299677779476E-02  7.841276441878E-02
  8.423058948002E-02  8.940718115625E-02  9.490191261456E-02  1.007343358937E-01
  1.069252046495E-01  1.121507391337E-01  1.176316503622E-01  1.233804188347E-01
  1.294101349845E-01  1.357345289867E-01  1.423680020228E-01  1.475549990844E-01
  1.529309777861E-01  1.585028234335E-01  1.642776721897E-01  1.702629202147E-01
  1.764662331383E-01  1.828955558777E-01  1.895591228129E-01  1.964654683334E-01
  2.036234377681E-01  2.110421987141E-01  2.161376015599E-01  2.213560278119E-01
  2.267004477474E-01  2.321739033578E-01  2.377795100805E-01  2.435204585719E-01
  2.494000165237E-01  2.554215305226E-01  2.615884279555E-01  2.679042189601E-01
  2.743724984227E-01  2.809969480246E-01  2.877813383377E-01  2.947295309705E-01
  3.018454807663E-01  3.091332380539E-01  3.165969509535E-01  3.242408677373E-01
  3.320693392479E-01  3.400868213747E-01  3.482978775900E-01  3.567071815465E-01
  3.653195197378E-01  3.741397942224E-01  3.831730254141E-01  3.924243549397E-01
  4.018990485653E-01  4.116024991939E-01  4.215402299344E-01  4.265987126936E-01
  4.317178972460E-01  4.368985120129E-01  4.421412941571E-01  4.474469896869E-01
  4.528163535632E-01  4.582501498060E-01  4.637491516036E-01  4.693141414229E-01
  4.749459111199E-01  4.806452620534E-01  4.864130051980E-01  4.922499612604E-01
  4.981569607955E-01  5.041348443251E-01  5.101844624570E-01  5.163066760065E-01
  5.225023561185E-01  5.287723843920E-01  5.351176530047E-01  5.415390648407E-01
  5.480375336188E-01  5.546139840222E-01  5.612693518305E-01  5.680045840525E-01
  5.748206390611E-01  5.817184867298E-01  5.886991085706E-01  5.957634978734E-01
  6.029126598479E-01  6.101476117661E-01  6.174693831073E-01  6.248790157046E-01
  6.323775638930E-01  6.399660946597E-01  6.476456877956E-01  6.554174360492E-01
  6.632824452818E-01  6.712418346252E-01  6.792967366407E-01  6.874482974804E-01
  6.956976770501E-01  7.040460491747E-01  7.124946017648E-01  7.210445369860E-01
  7.296970714298E-01  7.384534362870E-01  7.473148775224E-01  7.562826560527E-01
  7.653580479253E-01  7.745423445004E-01  7.838368526344E-01  7.932428948661E-01
  8.027618096044E-01  8.123949513197E-01  8.221436907355E-01  8.320094150244E-01
  8.419935280047E-01  8.520974503407E-01  8.623226197448E-01  8.726704911817E-01
  8.831425370759E-01  8.937402475208E-01  9.044651304911E-01  9.153187120570E-01
  9.263025366017E-01  9.374181670409E-01  9.486671850454E-01  9.600511912659E-01
  9.715718055611E-01  9.832306672278E-01  9.950294352346E-01  1.006969788457E+00
  1.019053425919E+00  1.031282067030E+00  1.043657451834E+00  1.056181341256E+00
  1.068855517351E+00  1.081681783560E+00  1.094661964962E+00  1.107797908542E+00
  1.121091483444E+00  1.134544581246E+00  1.148159116221E+00  1.161937025615E+00
  1.175880269923E+00  1.189990833162E+00  1.204270723160E+00  1.218721971838E+00
  1.233346635500E+00  1.248146795126E+00  1.263124556667E+00  1.278282051347E+00
  1.293621435963E+00  1.309144893195E+00  1.324854631913E+00  1.340752887496E+00
  1.356841922146E+00  1.373124025212E+00  1.389601513514E+00  1.406276731677E+00
  1.423152052457E+00  1.440229877086E+00  1.457512635611E+00  1.475002787239E+00
  1.492702820685E+00  1.510615254534E+00  1.528742637588E+00  1.547087549239E+00
  1.565652599830E+00  1.584440431028E+00  1.603453716200E+00  1.622695160795E+00
  1.642167502724E+00  1.661873512757E+00  1.681815994910E+00  1.701997786849E+00
  1.722421760291E+00  1.743090821415E+00  1.764007911272E+00  1.785176006207E+00
  1.806598118281E+00  1.828277295701E+00  1.850216623249E+00  1.872419222728E+00
  1.894888253401E+00  1.917626912442E+00  1.940638435391E+00  1.963926096616E+00
  1.987493209775E+00  2.011343128292E+00  2.035479245832E+00  2.059904996782E+00
  2.084623856743E+00  2.109639343024E+00  2.134955015140E+00  2.160574475322E+00
  2.186501369026E+00  2.212739385454E+00  2.239292258080E+00  2.266163765177E+00
  2.293357730359E+00  2.320878023123E+00  2.348728559401E+00  2.376913302113E+00
  2.405436261739E+00  2.434301496880E+00  2.463513114842E+00  2.493075272220E+00
  2.522992175487E+00  2.553268081593E+00  2.583907298572E+00  2.614914186155E+00
  2.646293156389E+00  2.678048674265E+00  2.710185258356E+00  2.742707481457E+00
  2.775619971234E+00  2.808927410889E+00  2.842634539820E+00  2.876746154297E+00
  2.911267108149E+00  2.946202313447E+00  2.981556741208E+00  3.017335422103E+00
  3.053543447168E+00  3.090185968534E+00  3.127268200156E+00  3.164795418558E+00
  3.202772963581E+00  3.241206239144E+00  3.280100714014E+00  3.319461922582E+00
  3.359295465653E+00  3.399607011241E+00  3.440402295375E+00  3.481687122920E+00
  3.523467368395E+00  3.565748976816E+00  3.608537964538E+00  3.651840420112E+00
  3.695662505153E+00  3.740010455215E+00  3.784890580678E+00  3.830309267646E+00
  3.876272978858E+00  3.922788254604E+00  3.969861713659E+00  4.017500054223E+00
  4.065710054874E+00  4.114498575532E+00  4.163872558439E+00  4.213839029140E+00
  4.264405097490E+00  4.315577958659E+00  4.367364894163E+00  4.419773272893E+00
  4.472810552168E+00  4.526484278794E+00  4.580802090140E+00  4.635771715221E+00
  4.691400975804E+00  4.747697787514E+00  4.804670160964E+00  4.862326202895E+00
  4.920674117330E+00  4.979722206738E+00  5.039478873219E+00  5.099952619697E+00
  5.161152051134E+00  5.223085875747E+00  5.285762906256E+00  5.349192061131E+00
  5.413382365865E+00  5.478342954255E+00  5.544083069706E+00  5.610612066543E+00
  5.677939411341E+00  5.746074684278E+00  5.815027580489E+00  5.884807911455E+00
  5.955425606392E+00  6.026890713669E+00  6.099213402233E+00  6.172403963060E+00
  6.246472810616E+00  6.321430484344E+00  6.397287650156E+00  6.474055101958E+00
  6.551743763181E+00  6.630364688340E+00  6.709929064600E+00  6.790448213375E+00
  6.871933591935E+00  6.954396795039E+00  7.037849556579E+00  7.122303751258E+00
  7.207771396273E+00  7.294264653028E+00  7.381795828865E+00  7.470377378811E+00
  7.560021907357E+00  7.650742170245E+00  7.742551076288E+00  7.835461689203E+00
  7.929487229474E+00  8.024641076228E+00  8.120936769142E+00  8.218388010372E+00
  8.317008666496E+00  8.416812770494E+00  8.517814523740E+00  8.620028298025E+00
  8.723468637602E+00  8.828150261253E+00  8.934088064388E+00  9.041297121160E+00
  9.149792686614E+00  9.259590198854E+00  9.370705281240E+00  9.483153744615E+00
  9.596951589550E+00  9.712115008625E+00  9.828660388728E+00  9.946604313393E+00
  1.006596356515E+01  1.018675512794E+01  1.030899618947E+01  1.043270414374E+01
  1.055789659347E+01  1.068459135259E+01  1.081280644882E+01  1.094256012621E+01
  1.107387084772E+01  1.120675729790E+01  1.134123838547E+01  1.147733324610E+01
  1.161506124505E+01  1.175444197999E+01  1.189549528375E+01  1.203824122715E+01
  1.218270012188E+01  1.232889252334E+01  1.247683923362E+01  1.262656130443E+01
  1.277808004008E+01  1.293141700056E+01  1.308659400457E+01  1.324363313262E+01
  1.340255673021E+01  1.356338741098E+01  1.372614805991E+01  1.389086183663E+01
  1.405755217867E+01  1.422624280481E+01  1.439695771847E+01  1.456972121109E+01
  1.474455786562E+01  1.492149256001E+01  1.510055047073E+01  1.528175707638E+01
  1.546513816130E+01  1.565071981923E+01  1.583852845706E+01  1.602859079855E+01
  1.622093388813E+01  1.641558509479E+01  1.661257211592E+01  1.681192298131E+01
  1.701366605709E+01  1.721783004978E+01  1.742444401037E+01  1.763353733850E+01
  1.784513978656E+01  1.805928146400E+01  1.827599284157E+01  1.849530475566E+01
  1.871724841273E+01  1.894185539369E+01  1.916915765841E+01  1.939918755031E+01
  1.963197780091E+01  1.986756153453E+01  2.010597227294E+01  2.034724394022E+01
  2.059141086750E+01  2.083850779791E+01  2.108856989148E+01  2.134163273018E+01
  2.159773232294E+01  2.185690511082E+01  2.211918797215E+01  2.238461822781E+01
  2.265323364655E+01  2.292507245031E+01  2.320017331971E+01  2.347857539955E+01
  2.376031830434E+01  2.404544212399E+01  2.433398742948E+01  2.462599527863E+01
  2.492150722198E+01  2.522056530864E+01  2.552321209235E+01  2.582949063745E+01
  2.613944452510E+01  2.645311785940E+01  2.677055527372E+01  2.709180193700E+01
  2.741690356025E+01  2.774590640297E+01  2.807885727980E+01  2.841580356716E+01
  2.875679320997E+01  2.910187472849E+01  2.945109722523E+01  2.980451039193E+01
  3.016216451664E+01  3.052411049083E+01  3.089039981672E+01  3.126108461453E+01
  3.163621762990E+01  3.201585224146E+01  3.240004246836E+01  3.278884297798E+01
  3.318230909371E+01  3.358049680284E+01  3.398346276447E+01  3.439126431764E+01
  3.480395948946E+01  3.522160700333E+01  3.564426628737E+01  3.607199748282E+01
  3.650486145261E+01  3.694291979004E+01  3.738623482752E+01  3.783486964545E+01
  3.828888808120E+01  3.874835473817E+01  3.921333499503E+01  3.968389501497E+01
  4.016010175515E+01  4.064202297621E+01  4.112972725193E+01  4.162328397895E+01
  4.212276338670E+01  4.262823654734E+01  4.313977538591E+01  4.365745269054E+01
  4.418134212282E+01
</grid-data>
</grid>
<valence-charge total-charge="4" is-unscreening-charge="yes"
 rescaled-to-z-pseudo="no">
<radfunc>
<data npts="457">
  7.452136275468E+01  7.450827601712E+01  7.446916407268E+01  7.440394258947E+01
  7.431332622721E+01  7.419428829306E+01  7.404276180523E+01  7.386950638481E+01
  7.367502469821E+01  7.344866301090E+01  7.319407514175E+01  7.291802851940E+01
  7.258534465960E+01  7.223898072978E+01  7.183182398535E+01  7.142674754030E+01
  7.096221077270E+01  7.052377289592E+01  7.003308067892E+01  6.948437145814E+01
  6.887137116291E+01  6.833013173601E+01  6.773968530367E+01  6.709610069495E+01
  6.639524566062E+01  6.563280192164E+01  6.480428749162E+01  6.413677067126E+01
  6.342751245207E+01  6.267451316088E+01  6.187577093446E+01  6.102929906839E+01
  6.013314629494E+01  5.918542025059E+01  5.818431438237E+01  5.712813852004E+01
  5.601535330475E+01  5.484460861283E+01  5.403134923099E+01  5.319156258737E+01
  5.232504541749E+01  5.143166278646E+01  5.051135527600E+01  4.956414644433E+01
  4.859015051956E+01  4.758958027765E+01  4.656275504520E+01  4.551010875579E+01
  4.443219797598E+01  4.332970980361E+01  4.220346952715E+01  4.105444791984E+01
  3.988376802780E+01  3.869271129600E+01  3.748272286175E+01  3.625541583126E+01
  3.501257434276E+01  3.375615520914E+01  3.248828792541E+01  3.121127282203E+01
  2.992757714551E+01  2.863982885312E+01  2.735080792008E+01  2.606343497706E+01
  2.478075712266E+01  2.350593079191E+01  2.224220160799E+01  2.161553144746E+01
  2.099288120048E+01  2.037467084108E+01  1.976132104033E+01  1.915325219534E+01
  1.855088341888E+01  1.795463149231E+01  1.736490978467E+01  1.678212714149E+01
  1.620668674703E+01  1.563898496420E+01  1.507941015689E+01  1.452834149967E+01
  1.398614778037E+01  1.345318620148E+01  1.292980118646E+01  1.241632319756E+01
  1.191306757212E+01  1.142033338445E+01  1.093840234064E+01  1.046753771392E+01
  1.000798332833E+01  9.559962598344E+00  9.123677632332E+00  8.699308407499E+00
  8.287012023872E+00  7.886922044632E+00  7.499147929806E+00  7.123774569865E+00
  6.760861925344E+00  6.410444777946E+00  6.072532597943E+00  5.747109531894E+00
  5.434134513843E+00  5.133541502232E+00  4.845239843721E+00  4.569114764044E+00
  4.305027984899E+00  4.052818464664E+00  3.812303259549E+00  3.583278500559E+00
  3.365520480415E+00  3.158786843399E+00  2.962817869910E+00  2.777337846425E+00
  2.602056510546E+00  2.436670559867E+00  2.280865212606E+00  2.134315807281E+00
  1.996689428164E+00  1.867646542922E+00  1.746842638669E+00  1.633929842661E+00
  1.528558514082E+00  1.430378793771E+00  1.339042099336E+00  1.254202553880E+00
  1.175518337538E+00  1.102652952143E+00  1.035276390603E+00  9.730662039744E-01
  9.157084606862E-01  8.628985939474E-01  8.143421349292E-01  7.697553309248E-01
  7.288656492401E-01  6.914121690627E-01  6.571458649551E-01  6.258297868861E-01
  5.972391428256E-01  5.711612908650E-01  5.473956485440E-01  5.257535275885E-01
  5.060579025735E-01  4.881431221242E-01  4.718545711414E-01  4.570482922149E-01
  4.435905738866E-01  4.313575127619E-01  4.202345556785E-01  4.101160272480E-01
  4.009046471375E-01  3.925110404828E-01  3.848532439009E-01  3.778562087342E-01
  3.714513024959E-01  3.655758090363E-01  3.601724277684E-01  3.551887025821E-01
  3.505762190144E-01  3.462897916720E-01  3.422874590200E-01  3.385303306018E-01
  3.349824743093E-01  3.316107682121E-01  3.283847503031E-01  3.252764696330E-01
  3.222603429235E-01  3.193130186111E-01  3.164132489567E-01  3.135417700789E-01
  3.106811893750E-01  3.078158796391E-01  3.049318791737E-01  3.020167972523E-01
  2.990597243744E-01  2.960511468412E-01  2.929828652608E-01  2.898479166530E-01
  2.866404998763E-01  2.833559041397E-01  2.799904403887E-01  2.765413753855E-01
  2.730068683180E-01  2.693859097950E-01  2.656782630983E-01  2.618844075801E-01
  2.580054841074E-01  2.540432424708E-01  2.499999906852E-01  2.458785461244E-01
  2.416821884416E-01  2.374146142355E-01  2.330798934311E-01  2.286824273507E-01
  2.242269084543E-01  2.197182817340E-01  2.151617077474E-01  2.105625272797E-01
  2.059262276217E-01  2.012584104525E-01  1.965647613151E-01  1.918510206708E-01
  1.871229565183E-01  1.823863385606E-01  1.776469139012E-01  1.729103842485E-01
  1.681823846070E-01  1.634684634301E-01  1.587740642065E-01  1.541045084548E-01
  1.494649800922E-01  1.448605111483E-01  1.402959687880E-01  1.357760436100E-01
  1.313052391828E-01  1.268878627821E-01  1.225280172893E-01  1.182295942122E-01
  1.139962677872E-01  1.098314901225E-01  1.057384873396E-01  1.017202566725E-01
  9.777956448272E-02  9.391894514743E-02  9.014070078085E-02  8.644690174659E-02
  8.283938792137E-02  7.931977067043E-02  7.588943549596E-02  7.254954532104E-02
  6.930104437265E-02  6.614466262848E-02  6.308092079341E-02  6.011013577278E-02
  5.723242661049E-02  5.444772086083E-02  5.175576136390E-02  4.915611339475E-02
  4.664817215648E-02  4.423117058798E-02  4.190418745593E-02  3.966615570080E-02
  3.751587100325E-02  3.545200054863E-02  3.347309193260E-02  3.157758219862E-02
  2.976380695627E-02  2.803000954592E-02  2.637435021070E-02  2.479491523632E-02
  2.328972601837E-02  2.185674801704E-02  2.049389955933E-02  1.919906044992E-02
  1.797008035288E-02  1.680478690883E-02  1.570099355384E-02  1.465650700971E-02
  1.366913441810E-02  1.273669009444E-02  1.185700188147E-02  1.102791708604E-02
  1.024730798650E-02  9.513076902651E-03  8.823160823310E-03  8.175535591162E-03
  7.568219647609E-03  6.999277344058E-03  6.466821829095E-03  5.969017523869E-03
  5.504082200501E-03  5.070288680529E-03  4.665966172210E-03  4.289501267008E-03
  3.939338616723E-03  3.613981313562E-03  3.311990995933E-03  3.031987702985E-03
  2.772649500843E-03  2.532711903194E-03  2.310967108298E-03  2.106263073973E-03
  1.917502450720E-03  1.743641392877E-03  1.583688265825E-03  1.436702266357E-03
  1.301791972067E-03  1.178113834205E-03  1.064870627093E-03  9.613098659573E-04
  8.667222037187E-04  7.804398160695E-04  7.018347830426E-04  6.303174742044E-04
  5.653349436456E-04  5.063693400777E-04  4.529363365735E-04  4.045835838241E-04
  3.608891902068E-04  3.214602314703E-04  2.859312924341E-04  2.539630427549E-04
  2.252408485325E-04  1.994734212895E-04  1.763915056639E-04  1.557466069824E-04
  1.373097597350E-04  1.208703378331E-04  1.062349074037E-04  9.322612274428E-05
  8.168166593372E-05  7.145323046060E-05  6.240554909372E-05  5.441546607715E-05
  4.737105358651E-05  4.117077223458E-05  3.572267526531E-05  3.094365592710E-05
  2.675873737145E-05  2.310040428342E-05  1.990797531821E-05  1.712701529487E-05
  1.470878598567E-05  1.260973423875E-05  1.079101608408E-05  9.218055397997E-06
  7.860135641327E-06  6.690023139243E-06  5.683620338032E-06  4.819647454335E-06
  4.079350925280E-06  3.446237072833E-06  2.905829411393E-06  2.445448053452E-06
  2.054009702671E-06  1.721846766112E-06  1.440544166317E-06  1.202792488481E-06
  1.002256156868E-06  8.334553970859E-07  6.916608056344E-07  5.727994145923E-07
  4.733712064703E-07  3.903751014434E-07  3.212435057259E-07  2.637845751912E-07
  2.161314119960E-07  1.766974735232E-07  1.441375320967E-07  1.173135803674E-07
  9.526513084832E-08  7.718340863740E-08  6.238898383892E-08  5.031243454161E-08
  4.047767243894E-08  3.248760133205E-08  2.601181390753E-08  2.077606443029E-08
  1.655328445092E-08  1.315593543097E-08  1.042951647989E-08  8.247067325374E-09
  6.504526358467E-09  5.116821262736E-09  4.014585508136E-09  3.141408017603E-09
  2.451535746043E-09  1.907959889855E-09  1.480826106173E-09  1.146117593297E-09
  8.845672877313E-10  6.807618814335E-10  5.224059594579E-10  3.997193989391E-10
  3.049453432619E-10  2.319496501080E-10  1.758957813167E-10  1.329817213485E-10
  1.002277380939E-10  7.530568700497E-11  5.640215341225E-11  4.210906939706E-11
  3.133656680075E-11  2.324376848039E-11  1.718400334468E-11  1.266158099158E-11
  9.297799649101E-12  6.804304453043E-12  4.962277199726E-12  3.606236677062E-12
  2.611471637716E-12  1.884325868431E-12  1.354714589444E-12  9.703802762142E-13
  6.924995296365E-13  4.923354951039E-13  3.486964164186E-13  2.460134072252E-13
  1.728920636317E-13  1.210252853423E-13  8.438038048826E-14  5.859363306246E-14
  4.052117003955E-14  2.790711152935E-14  1.913937077029E-14  1.307068987410E-14
  8.888027995340E-15  6.017637981511E-15  4.056372758898E-15  2.722186995690E-15
  1.818625222959E-15  1.209456354417E-15  8.006361918600E-16  5.275386267778E-16
  3.459577385078E-16  2.257963856774E-16  1.466598329803E-16  9.479391444232E-17
  6.096762788975E-17  3.901592297680E-17  2.484174503439E-17  1.573596537808E-17
  9.916286567774E-18  6.216160512208E-18  3.876015360513E-18  2.403870873422E-18
  1.482760745607E-18  9.095716254642E-19  5.548554271551E-19  3.365664003787E-19
  2.029925823546E-19  1.217245530203E-19  7.256621903062E-20  4.300496787193E-20
  0.000000000000E+00  0.000000000000E+00  0.000000000000E+00  0.000000000000E+00
  0.000000000000E+00  0.000000000000E+00  0.000000000000E+00  0.000000000000E+00
  0.000000000000E+00  0.000000000000E+00  0.000000000000E+00  0.000000000000E+00
  0.000000000000E+00  0.000000000000E+00  0.000000000000E+00  0.000000000000E+00
  0.000000000000E+00  0.000000000000E+00  0.000000000000E+00  0.000000000000E+00
  0.000000000000E+00  0.000000000000E+00  0.000000000000E+00  0.000000000000E+00
  0.000000000000E+00
</data>
</radfunc>
</valence-charge>
<semilocal-potentials set="scalar_relativistic">
<slps n="1" l="s" rc="1.20427072316">
<radfunc>
<data npts="256">
 -1.868941454363E+01 -1.868846703350E+01 -1.868563498359E+01 -1.868091141859E+01
 -1.867434665593E+01 -1.866571925822E+01 -1.865473115947E+01 -1.864215884747E+01
 -1.862803512560E+01 -1.861158093907E+01 -1.859305472712E+01 -1.857294185814E+01
 -1.854866629661E+01 -1.852334888430E+01 -1.849352837527E+01 -1.846379358683E+01
 -1.842960840537E+01 -1.839725601922E+01 -1.836094197164E+01 -1.832019581934E+01
 -1.827449405126E+01 -1.823397549929E+01 -1.818958636631E+01 -1.814097026086E+01
 -1.808773964032E+01 -1.802947320366E+01 -1.796571305643E+01 -1.791398996245E+01
 -1.785867202040E+01 -1.779951913225E+01 -1.773627582556E+01 -1.766867028762E+01
 -1.759641334207E+01 -1.751919736760E+01 -1.743669515900E+01 -1.734855873240E+01
 -1.725441807763E+01 -1.715387986315E+01 -1.708309482856E+01 -1.700915097944E+01
 -1.693191277595E+01 -1.685123917258E+01 -1.676698343525E+01 -1.667899295992E+01
 -1.658710909404E+01 -1.649116696236E+01 -1.639099529902E+01 -1.628641628783E+01
 -1.617724541317E+01 -1.606329132415E+01 -1.594435571481E+01 -1.582023322404E+01
 -1.569071135863E+01 -1.555557044392E+01 -1.541458360648E+01 -1.526751679404E+01
 -1.511412883819E+01 -1.495417156577E+01 -1.478738996523E+01 -1.461352241452E+01
 -1.443230097703E+01 -1.424345177223E+01 -1.404669542748E+01 -1.384174761752E+01
 -1.362831969885E+01 -1.340611944786E+01 -1.317485191617E+01 -1.305572524514E+01
 -1.293422042586E+01 -1.281030029580E+01 -1.268392774386E+01 -1.255506576213E+01
 -1.242367750437E+01 -1.228972635282E+01 -1.215317599532E+01 -1.201399051518E+01
 -1.187213449692E+01 -1.172757315132E+01 -1.158027246425E+01 -1.143019937430E+01
 -1.127732198501E+01 -1.112160981849E+01 -1.096303411779E+01 -1.080156820636E+01
 -1.063718791327E+01 -1.046987207372E+01 -1.029960311414E+01 -1.012636773146E+01
 -9.950157675481E+00 -9.770970642272E+00 -9.588811285308E+00 -9.403692348922E+00
 -9.215635926187E+00 -9.024674840330E+00 -8.830854145210E+00 -8.634232736532E+00
 -8.434885061234E+00 -8.232902908238E+00 -8.028397259418E+00 -7.821500175670E+00
 -7.612366689268E+00 -7.401176670616E+00 -7.188136635138E+00 -6.973481454377E+00
 -6.757475934629E+00 -6.540416226385E+00 -6.322631028593E+00 -6.104482553025E+00
 -5.886367215730E+00 -5.668716024425E+00 -5.451994632542E+00 -5.236703032354E+00
 -5.023374860938E+00 -4.812576293860E+00 -4.604904502323E+00 -4.400985650651E+00
 -4.201472412613E+00 -4.007040988317E+00 -3.818387608825E+00 -3.636224524611E+00
 -3.461275487595E+00 -3.294270755732E+00 -3.135941674818E+00 -2.987014923685E+00
 -2.848206544401E+00 -2.720215913138E+00 -2.603719830136E+00 -2.499366901799E+00
 -2.407772327988E+00 -2.329513055354E+00 -2.265122964377E+00 -2.215087270625E+00
 -2.179834599265E+00 -2.159724245595E+00 -2.155025083504E+00 -2.165881745208E+00
 -2.192263666526E+00 -2.233894262211E+00 -2.290161858258E+00 -2.360021610217E+00
 -2.441907621004E+00 -2.533683557165E+00 -2.632662482922E+00 -2.735716326677E+00
 -2.839470662699E+00 -2.940548434059E+00 -3.035802003365E+00 -3.122471256795E+00
 -3.198229823113E+00 -3.261120228374E+00 -3.309413221469E+00 -3.341442934655E+00
 -3.355465971004E+00 -3.349577161494E+00 -3.321680007864E+00 -3.282106482503E+00
 -3.243185597548E+00 -3.204733125993E+00 -3.166733763107E+00 -3.129185597903E+00
 -3.092082499841E+00 -3.055419162786E+00 -3.019190333471E+00 -2.983390855099E+00
 -2.948015652466E+00 -2.913059720604E+00 -2.878518117308E+00 -2.844385958420E+00
 -2.810658415081E+00 -2.777330712226E+00 -2.744398127830E+00 -2.711855992518E+00
 -2.679699689357E+00 -2.647924653674E+00 -2.616526372859E+00 -2.585500386116E+00
 -2.554842284149E+00 -2.524547708812E+00 -2.494612352707E+00 -2.465031958752E+00
 -2.435802319723E+00 -2.406919277781E+00 -2.378378723982E+00 -2.350176597781E+00
 -2.322308886529E+00 -2.294771624957E+00 -2.267560894672E+00 -2.240672823637E+00
 -2.214103585654E+00 -2.187849399851E+00 -2.161906530163E+00 -2.136271284816E+00
 -2.110940015820E+00 -2.085909118450E+00 -2.061175030747E+00 -2.036734233009E+00
 -2.012583247296E+00 -1.988718636929E+00 -1.965137006009E+00 -1.941834998927E+00
 -1.918809299882E+00 -1.896056632416E+00 -1.873573758936E+00 -1.851357480256E+00
 -1.829404635140E+00 -1.807712099849E+00 -1.786276787692E+00 -1.765095648592E+00
 -1.744165668643E+00 -1.723483869686E+00 -1.703047308880E+00 -1.682853078285E+00
 -1.662898304447E+00 -1.643180147987E+00 -1.623695803200E+00 -1.604442497652E+00
 -1.585417491787E+00 -1.566618078539E+00 -1.548041582942E+00 -1.529685361754E+00
 -1.511546803078E+00 -1.493623325993E+00 -1.475912380183E+00 -1.458411445579E+00
 -1.441118031993E+00 -1.424029678773E+00 -1.407143954444E+00 -1.390458456365E+00
 -1.373970810387E+00 -1.357678670514E+00 -1.341579718568E+00 -1.325671663859E+00
 -1.309952242856E+00 -1.294419218866E+00 -1.279070381714E+00 -1.263903547426E+00
 -1.248916557919E+00 -1.234107280692E+00 -1.219473608517E+00 -1.205013459193E+00
 -1.190724775035E+00 -1.176605522966E+00 -1.162653693865E+00 -1.148867302456E+00
 -1.135244386993E+00 -1.121783008977E+00 -1.108481252882E+00 -1.095337225887E+00
 -1.082349057603E+00 -1.069514899807E+00 -1.056832926188E+00 -1.044301332080E+00
 -1.031918334209E+00 -1.019682170446E+00 -1.007591099549E+00 -9.956434009250E-01
</data>
</radfunc>
</slps>
<slps n="2" l="p" rc="1.05618134126">
<radfunc>
<data npts="256">
 -1.347215045749E+01 -1.347102059273E+01 -1.346764437201E+01 -1.346201610693E+01
 -1.345420007302E+01 -1.344393901657E+01 -1.343088798040E+01 -1.341597975346E+01
 -1.339926309122E+01 -1.337982994125E+01 -1.335800372275E+01 -1.333437337187E+01
 -1.330594309748E+01 -1.327639896353E+01 -1.324173990940E+01 -1.320733204415E+01
 -1.316796241528E+01 -1.313088975560E+01 -1.308949421597E+01 -1.304332068200E+01
 -1.299187822845E+01 -1.294657800846E+01 -1.289728387813E+01 -1.284369694493E+01
 -1.278550603058E+01 -1.272238920632E+01 -1.265401583236E+01 -1.259908376463E+01
 -1.254086225172E+01 -1.247920801840E+01 -1.241397885097E+01 -1.234503479357E+01
 -1.227223948945E+01 -1.219546166757E+01 -1.211457677008E+01 -1.202946870987E+01
 -1.194003173952E+01 -1.184617240266E+01 -1.178110289546E+01 -1.171401284585E+01
 -1.164488619627E+01 -1.157371059427E+01 -1.150047761251E+01 -1.142518294215E+01
 -1.134782655142E+01 -1.126841280009E+01 -1.118695049953E+01 -1.110345290687E+01
 -1.101793764100E+01 -1.093042650695E+01 -1.084094521471E+01 -1.074952297787E+01
 -1.065619197728E+01 -1.056098667516E+01 -1.046394296548E+01 -1.036509714822E+01
 -1.026448471639E+01 -1.016213894796E+01 -1.005808929831E+01 -9.952359593424E+00
 -9.844966029869E+00 -9.735914994299E+00 -9.625200723479E+00 -9.512802834962E+00
 -9.398683769476E+00 -9.282786198858E+00 -9.165030468658E+00 -9.105424193533E+00
 -9.045312163873E+00 -8.984677097984E+00 -8.923499911555E+00 -8.861759672774E+00
 -8.799433568162E+00 -8.736496881263E+00 -8.672922986677E+00 -8.608683362264E+00
 -8.543747622822E+00 -8.478083578947E+00 -8.411657325357E+00 -8.344433363443E+00
 -8.276374763331E+00 -8.207443371291E+00 -8.137600068704E+00 -8.066805089173E+00
 -7.995018400500E+00 -7.922200158198E+00 -7.848311236846E+00 -7.773313844855E+00
 -7.697172227059E+00 -7.619853457887E+00 -7.541328325671E+00 -7.461572305872E+00
 -7.380566617698E+00 -7.298299354735E+00 -7.214766675917E+00 -7.129974038551E+00
 -7.043937450317E+00 -6.956684712393E+00 -6.868256621312E+00 -6.778708093131E+00
 -6.688109170128E+00 -6.596545867902E+00 -6.504120819534E+00 -6.410953673650E+00
 -6.317181204861E+00 -6.222957098272E+00 -6.128451374555E+00 -6.033849428370E+00
 -5.939350660698E+00 -5.845166694645E+00 -5.751519174389E+00 -5.658637157999E+00
 -5.566754126581E+00 -5.476104644649E+00 -5.386920719521E+00 -5.299427921175E+00
 -5.213841338312E+00 -5.130361461784E+00 -5.049170103430E+00 -4.970426477088E+00
 -4.894263589713E+00 -4.820785114225E+00 -4.750062941869E+00 -4.682135639171E+00
 -4.617008060204E+00 -4.554652382924E+00 -4.495010838455E+00 -4.438000367163E+00
 -4.383519339002E+00 -4.331456280527E+00 -4.281700209573E+00 -4.234151638924E+00
 -4.188732533927E+00 -4.145392507475E+00 -4.104107431527E+00 -4.064865756733E+00
 -4.027637760163E+00 -3.992324577260E+00 -3.958688212306E+00 -3.926271309527E+00
 -3.894325446969E+00 -3.861775803955E+00 -3.827252481484E+00 -3.789208459057E+00
 -3.748341017614E+00 -3.706352238444E+00 -3.663185753066E+00 -3.619136170691E+00
 -3.574700798067E+00 -3.530427825261E+00 -3.486774627171E+00 -3.444023734276E+00
 -3.402270826877E+00 -3.361468410601E+00 -3.321478881162E+00 -3.282106482503E+00
 -3.243185597548E+00 -3.204733125993E+00 -3.166733763107E+00 -3.129185597903E+00
 -3.092082499841E+00 -3.055419162786E+00 -3.019190333471E+00 -2.983390855099E+00
 -2.948015652466E+00 -2.913059720604E+00 -2.878518117308E+00 -2.844385958420E+00
 -2.810658415081E+00 -2.777330712226E+00 -2.744398127830E+00 -2.711855992518E+00
 -2.679699689357E+00 -2.647924653674E+00 -2.616526372859E+00 -2.585500386116E+00
 -2.554842284149E+00 -2.524547708812E+00 -2.494612352707E+00 -2.465031958752E+00
 -2.435802319723E+00 -2.406919277781E+00 -2.378378723982E+00 -2.350176597781E+00
 -2.322308886529E+00 -2.294771624957E+00 -2.267560894672E+00 -2.240672823637E+00
 -2.214103585654E+00 -2.187849399851E+00 -2.161906530163E+00 -2.136271284816E+00
 -2.110940015820E+00 -2.085909118450E+00 -2.061175030747E+00 -2.036734233009E+00
 -2.012583247296E+00 -1.988718636929E+00 -1.965137006009E+00 -1.941834998927E+00
 -1.918809299882E+00 -1.896056632416E+00 -1.873573758936E+00 -1.851357480256E+00