<?xml version="1.0" encoding="UTF-8" ?>
<psml version="1.1" energy_unit="hartree" length_unit="bohr"
 uuid="30406f60-431a-11e8-72d3-2af4d6fe7234"
 xmlns="http://esl.cecam.org/PSML/ns/1.1">
<provenance creator="ONCVPSP-3.3.0+psml-3.3.0-73 (fully-relativistic)"
 date="2018-04-18">
<annotation action="semilocal-pseudopotential-generation"
 action-cont="projectors-generation" />
<input-file name="oncvpsp-input">
<![CDATA[# atsym z nc nv iexc psfile
Rb 37 6 3 4 both
# n l f
1 0 2.0
2 0 2.0
2 1 6.0
3 0 2.0
3 1 6.0
3 2 10.0
4 0 2.0
4 1 6.0
5 0 1.0
# lmax
2
# l rc ep ncon nbas qcut
0 1.7 0.0 4 9 6.4
1 1.75 0.0 4 9 6.6
2 1.9 0.1 4 9 7.4
# lloc lpopt rc5 dvloc0
4 5 1.7 2.5
# l nproj debl
0 2 1.0
1 2 3.5
2 2 2.5
# icmod fcfact rcfact
3 7.0 1.25
# epsh1 epsh2 depsh
-12.0 12.0 0.02
# rlmax drl
6.0 0.01
 0
]]>
</input-file>
</provenance>
<pseudo-atom-spec atomic-label="Rb" atomic-number="37" z-pseudo="9"
 flavor="Hamann&apos;s oncvpsp" relativity="dirac" spin-dft="no"
 core-corrections="yes">
<annotation pseudo-energy="-24.2647542437" />
<exchange-correlation>
<annotation oncvpsp-xc-code="4" oncvpsp-xc-type="GGA -- Perdew-Burke-Ernzerhof" />
<libxc-info number-of-functionals="2">
<functional name="Perdew, Burke &amp; Ernzerhof (GGA)" type="exchange" id="101" />
<functional name="Perdew, Burke &amp; Ernzerhof (GGA)" type="correlation"
 id="130" />
</libxc-info>
</exchange-correlation>
<valence-configuration total-valence-charge="9">
<shell n="4" l="s" occupation="2" />
<shell n="4" l="p" occupation="6" />
<shell n="5" l="s" occupation="1" />
</valence-configuration>
</pseudo-atom-spec>
<grid npts="458">
<annotation type="sampled from oncvpsp log grid"
 recipe="r(i:1..N) = r1*exp(a*(i-1)) + r=0; resampled"
 recipe-cont="r1: scale; a: step" scale="0.135135135135E-04"
 step="0.119285708653E-01" delta="0.500000000000E-02" rmax="44.4480804401" />
<grid-data>
  0.000000000000E+00  5.015364275536E-03  1.001779654873E-02  1.502829226536E-02
  2.024987958689E-02  2.540108002142E-02  3.074258501631E-02  3.589938802680E-02
  4.093291586519E-02  4.611877975066E-02  5.134550390486E-02  5.648674120200E-02
  6.214277179039E-02  6.755448818428E-02  7.256668482434E-02  7.795076075524E-02
  8.373430751356E-02  8.888039899844E-02  9.434275580343E-02  1.001408147677E-01
  1.062952072679E-01  1.114899531924E-01  1.169385711956E-01  1.226534682428E-01
  1.286476576391E-01  1.349347886622E-01  1.415291776427E-01  1.466856132050E-01
  1.520299169380E-01  1.575689335796E-01  1.633097572469E-01  1.692597405222E-01
  1.754265038697E-01  1.818179453957E-01  1.884422509637E-01  1.953079046791E-01
  2.024236997544E-01  2.097987497720E-01  2.148641307865E-01  2.200518103602E-01
  2.253647412695E-01  2.308059475827E-01  2.363785263812E-01  2.420856495221E-01
  2.479305654442E-01  2.539166010163E-01  2.600471634312E-01  2.663257421451E-01
  2.727559108634E-01  2.793413295753E-01  2.860857466366E-01  2.929930009034E-01
  3.000670239172E-01  3.073118421427E-01  3.147315792594E-01  3.223304585090E-01
  3.301128050992E-01  3.380830486655E-01  3.462457257925E-01  3.546054825961E-01
  3.631670773679E-01  3.719353832838E-01  3.809153911778E-01  3.901122123824E-01
  3.995310816382E-01  4.091773600733E-01  4.190565382549E-01  4.240852167139E-01
  4.291742393145E-01  4.343243301863E-01  4.395362221485E-01  4.448106568143E-01
  4.501483846961E-01  4.555501653124E-01  4.610167672962E-01  4.665489685037E-01
  4.721475561258E-01  4.778133267993E-01  4.835470867209E-01  4.893496517615E-01
  4.952218475827E-01  5.011645097536E-01  5.071784838707E-01  5.132646256771E-01
  5.194238011853E-01  5.256568867995E-01  5.319647694411E-01  5.383483466744E-01
  5.448085268345E-01  5.513462291565E-01  5.579623839064E-01  5.646579325132E-01
  5.714338277034E-01  5.782910336358E-01  5.852305260395E-01  5.922532923519E-01
  5.993603318602E-01  6.065526558425E-01  6.138312877126E-01  6.211972631651E-01
  6.286516303231E-01  6.361954498870E-01  6.438297952856E-01  6.515557528291E-01
  6.593744218630E-01  6.672869149254E-01  6.752943579045E-01  6.833978901993E-01
  6.915986648817E-01  6.998978488603E-01  7.082966230466E-01  7.167961825232E-01
  7.253977367135E-01  7.341025095540E-01  7.429117396687E-01  7.518266805447E-01
  7.608486007112E-01  7.699787839198E-01  7.792185293268E-01  7.885691516787E-01
  7.980319814989E-01  8.076083652769E-01  8.172996656602E-01  8.271072616481E-01
  8.370325487879E-01  8.470769393733E-01  8.572418626458E-01  8.675287649976E-01
  8.779391101775E-01  8.884743794997E-01  8.991360720537E-01  9.099257049183E-01
  9.208448133773E-01  9.318949511379E-01  9.430776905515E-01  9.543946228381E-01
  9.658473583122E-01  9.774375266119E-01  9.891667769313E-01  1.001036778254E+00
  1.013049219594E+00  1.025205810229E+00  1.037508279951E+00  1.049958379311E+00
  1.062557879863E+00  1.075308574421E+00  1.088212277314E+00  1.101270824642E+00
  1.114486074537E+00  1.127859907432E+00  1.141394226321E+00  1.155090957037E+00
  1.168952048521E+00  1.182979473104E+00  1.197175226781E+00  1.211541329502E+00
  1.226079825456E+00  1.240792783362E+00  1.255682296762E+00  1.270750484323E+00
  1.285999490135E+00  1.301431484017E+00  1.317048661825E+00  1.332853245767E+00
  1.348847484716E+00  1.365033654533E+00  1.381414058387E+00  1.397991027088E+00
  1.414766919413E+00  1.431744122446E+00  1.448925051915E+00  1.466312152538E+00
  1.483907898368E+00  1.501714793149E+00  1.519735370667E+00  1.537972195115E+00
  1.556427861456E+00  1.575104995793E+00  1.594006255743E+00  1.613134330812E+00
  1.632491942782E+00  1.652081846095E+00  1.671906828248E+00  1.691969710187E+00
  1.712273346709E+00  1.732820626870E+00  1.753614474392E+00  1.774657848085E+00
  1.795953742262E+00  1.817505187169E+00  1.839315249415E+00  1.861387032408E+00
  1.883723676797E+00  1.906328360919E+00  1.929204301250E+00  1.952354752865E+00
  1.975783009899E+00  1.999492406018E+00  2.023486314890E+00  2.047768150669E+00
  2.072341368477E+00  2.097209464898E+00  2.122375978477E+00  2.147844490219E+00
  2.173618624102E+00  2.199702047591E+00  2.226098472162E+00  2.252811653828E+00
  2.279845393674E+00  2.307203538398E+00  2.334889980859E+00  2.362908660629E+00
  2.391263564557E+00  2.419958727331E+00  2.448998232059E+00  2.478386210844E+00
  2.508126845374E+00  2.538224367518E+00  2.568683059929E+00  2.599507256648E+00
  2.630701343728E+00  2.662269759852E+00  2.694216996971E+00  2.726547600934E+00
  2.759266172145E+00  2.792377366211E+00  2.825885894606E+00  2.859796525341E+00
  2.894114083645E+00  2.928843452649E+00  2.963989574081E+00  2.999557448970E+00
  3.035552138357E+00  3.071978764018E+00  3.108842509186E+00  3.146148619296E+00
  3.183902402727E+00  3.222109231560E+00  3.260774542339E+00  3.299903836847E+00
  3.339502682889E+00  3.379576715084E+00  3.420131635665E+00  3.461173215293E+00
  3.502707293876E+00  3.544739781403E+00  3.587276658780E+00  3.630323978685E+00
  3.673887866429E+00  3.717974520826E+00  3.762590215076E+00  3.807741297657E+00
  3.853434193229E+00  3.899675403548E+00  3.946471508390E+00  3.993829166491E+00
  4.041755116489E+00  4.090256177887E+00  4.139339252022E+00  4.189011323046E+00
  4.239279458922E+00  4.290150812429E+00  4.341632622179E+00  4.393732213645E+00
  4.446457000208E+00  4.499814484211E+00  4.553812258022E+00  4.608458005118E+00
  4.663759501179E+00  4.719724615193E+00  4.776361310576E+00  4.833677646303E+00
  4.891681778058E+00  4.950381959395E+00  5.009786542908E+00  5.069903981423E+00
  5.130742829200E+00  5.192311743150E+00  5.254619484068E+00  5.317674917877E+00
  5.381487016891E+00  5.446064861094E+00  5.511417639427E+00  5.577554651100E+00
  5.644485306913E+00  5.712219130596E+00  5.780765760163E+00  5.850134949285E+00
  5.920336568677E+00  5.991380607501E+00  6.063277174791E+00  6.136036500888E+00
  6.209668938899E+00  6.284184966166E+00  6.359595185760E+00  6.435910327989E+00
  6.513141251925E+00  6.591298946948E+00  6.670394534311E+00  6.750439268723E+00
  6.831444539948E+00  6.913421874427E+00  6.996382936920E+00  7.080339532163E+00
  7.165303606549E+00  7.251287249828E+00  7.338302696826E+00  7.426362329188E+00
  7.515478677138E+00  7.605664421264E+00  7.696932394319E+00  7.789295583051E+00
  7.882767130047E+00  7.977360335608E+00  8.073088659635E+00  8.169965723551E+00
  8.268005312233E+00  8.367221375980E+00  8.467628032492E+00  8.569239568882E+00
  8.672070443708E+00  8.776135289033E+00  8.881448912501E+00  8.988026299451E+00
  9.095882615045E+00  9.205033206425E+00  9.315493604902E+00  9.427279528161E+00
  9.540406882499E+00  9.654891765089E+00  9.770750466270E+00  9.887999471865E+00
  1.000665546553E+01  1.012673533111E+01  1.024825615509E+01  1.037123522895E+01
  1.049569005170E+01  1.062163833232E+01  1.074909799230E+01  1.087808716821E+01
  1.100862421423E+01  1.114072770480E+01  1.127441643726E+01  1.140970943451E+01
  1.154662594772E+01  1.168518545909E+01  1.182540768460E+01  1.196731257682E+01
  1.211092032774E+01  1.225625137167E+01  1.240332638813E+01  1.255216630479E+01
  1.270279230045E+01  1.285522580805E+01  1.300948851775E+01  1.316560237996E+01
  1.332358960852E+01  1.348347268382E+01  1.364527435603E+01  1.380901764830E+01
  1.397472586008E+01  1.414242257040E+01  1.431213164125E+01  1.448387722094E+01
  1.465768374759E+01  1.483357595256E+01  1.501157886399E+01  1.519171781036E+01
  1.537401842409E+01  1.555850664518E+01  1.574520872492E+01  1.593415122962E+01
  1.612536104437E+01  1.631886537691E+01  1.651469176143E+01  1.671286806257E+01
  1.691342247932E+01  1.711638354907E+01  1.732178015166E+01  1.752964151348E+01
  1.773999721164E+01  1.795287717818E+01  1.816831170432E+01  1.838633144477E+01
  1.860696742211E+01  1.883025103117E+01  1.905621404354E+01  1.928488861207E+01
  1.951630727541E+01  1.975050296272E+01  1.998750899827E+01  2.022735910625E+01
  2.047008741552E+01  2.071572846451E+01  2.096431720608E+01  2.121588901256E+01
  2.147047968071E+01  2.172812543688E+01  2.198886294212E+01  2.225272929742E+01
  2.251976204899E+01  2.278999919358E+01  2.306347918390E+01  2.334024093411E+01
  2.362032382532E+01  2.390376771122E+01  2.419061292376E+01  2.448090027884E+01
  2.477467108219E+01  2.507196713518E+01  2.537283074080E+01  2.567730470969E+01
  2.598543236620E+01  2.629725755460E+01  2.661282464525E+01  2.693217854100E+01
  2.725536468349E+01  2.758242905969E+01  2.791341820841E+01  2.824837922691E+01
  2.858735977763E+01  2.893040809496E+01  2.927757299210E+01  2.962890386801E+01
  2.998445071442E+01  3.034426412300E+01  3.070839529247E+01  3.107689603598E+01
  3.144981878841E+01  3.182721661387E+01  3.220914321324E+01  3.259565293180E+01
  3.298680076698E+01  3.338264237619E+01  3.378323408470E+01  3.418863289372E+01
  3.459889648844E+01  3.501408324630E+01  3.543425224526E+01  3.585946327220E+01
  3.628977683147E+01  3.672525415344E+01  3.716595720329E+01  3.761194868973E+01
  3.806329207400E+01  3.852005157889E+01  3.898229219784E+01  3.945007970421E+01
  3.992348066066E+01  4.040256242859E+01  4.088739317773E+01  4.137804189586E+01
  4.187457839862E+01  4.237707333940E+01  4.288559821947E+01  4.340022539811E+01
  4.392102810288E+01  4.444808044012E+01
</grid-data>
</grid>
<valence-charge total-charge="9" is-unscreening-charge="yes"
 rescaled-to-z-pseudo="no">
<radfunc>
<data npts="458">
  3.758391865938E-02  3.769794752735E-02  3.803892551251E-02  3.860815256969E-02
  3.944420908793E-02  4.051237687508E-02  4.187600494809E-02  4.344059183585E-02
  4.520377566660E-02  4.726524147927E-02  4.959572936452E-02  5.213706239006E-02
  5.521988623368E-02  5.845299434385E-02  6.169648025024E-02  6.544949126217E-02
  6.979377899104E-02  7.393404183729E-02  7.861446738959E-02  8.390752347507E-02
  8.989587154891E-02  9.525015114734E-02  1.011640264759E-01  1.076981480562E-01
  1.149201085935E-01  1.229052886219E-01  1.317378084573E-01  1.389743682602E-01
  1.467837986876E-01  1.552135269363E-01  1.643151180685E-01  1.741446464502E-01
  1.847630980181E-01  1.962368047981E-01  2.086379128123E-01  2.220448840976E-01
  2.365430329901E-01  2.522250960688E-01  2.633869442375E-01  2.751515464922E-01
  2.875526635099E-01  3.006259390027E-01  3.144089889132E-01  3.289414914486E-01
  3.442652772843E-01  3.604244191319E-01  3.774653197135E-01  3.954367970102E-01
  4.143901654570E-01  4.343793115363E-01  4.554607619791E-01  4.776937425049E-01
  5.011402247329E-01  5.258649585557E-01  5.519354868993E-01  5.794221393822E-01
  6.083980009408E-01  6.389388509995E-01  6.711230682326E-01  7.050314953893E-01
  7.407472580327E-01  7.783555303777E-01  8.179432407012E-01  8.595987080451E-01
  9.034112011395E-01  9.494704096504E-01  9.978658170069E-01  1.022967323467E+00
  1.048685963209E+00  1.075032515326E+00  1.102017585174E+00  1.129651569875E+00
  1.157944621366E+00  1.186906606880E+00  1.216547066747E+00  1.246875169399E+00
  1.277899663447E+00  1.309628826724E+00  1.342070412176E+00  1.375231590475E+00
  1.409118889247E+00  1.443738128805E+00  1.479094354290E+00  1.515191764103E+00
  1.552033634558E+00  1.589622240680E+00  1.627958773060E+00  1.667043250748E+00
  1.706874430130E+00  1.747449709792E+00  1.788765031381E+00  1.830814776512E+00
  1.873591659785E+00  1.917086618043E+00  1.961288696011E+00  2.006184928528E+00
  2.051760219610E+00  2.097997218681E+00  2.144876194313E+00  2.192374905947E+00
  2.240468474101E+00  2.289129249661E+00  2.338326682959E+00  2.388027193399E+00
  2.438194040534E+00  2.488787197565E+00  2.539763228356E+00  2.591075169183E+00
  2.642672416530E+00  2.694500622361E+00  2.746501598445E+00  2.798613231363E+00
  2.850769410002E+00  2.902899967386E+00  2.954930638807E+00  3.006783038300E+00
  3.058374655553E+00  3.109618875372E+00  3.160425021866E+00  3.210698429459E+00
  3.260340542815E+00  3.309249047671E+00  3.357318034426E+00  3.404438196187E+00
  3.450497062739E+00  3.495379271635E+00  3.538966877291E+00  3.581139698592E+00
  3.621775705101E+00  3.660751441486E+00  3.697942489297E+00  3.733223964636E+00
  3.766471049756E+00  3.797559555976E+00  3.826366514764E+00  3.852770793241E+00
  3.876653729823E+00  3.897899785218E+00  3.916397203584E+00  3.932038678295E+00
  3.944722016546E+00  3.954350796902E+00  3.960835013945E+00  3.964091704332E+00
  3.964045548932E+00  3.960629446179E+00  3.953785052448E+00  3.943463286016E+00
  3.929624792050E+00  3.912240367046E+00  3.891291342122E+00  3.866769925509E+00
  3.838679505521E+00  3.807034915961E+00  3.771862666470E+00  3.733201140502E+00
  3.691100763496E+00  3.645624143224E+00  3.596846183265E+00  3.544854169053E+00
  3.489747823940E+00  3.431639330303E+00  3.370653307890E+00  3.306926738623E+00
  3.240608823895E+00  3.171860757469E+00  3.100855394434E+00  3.027776794705E+00
  2.952819618543E+00  2.876188351706E+00  2.798096339564E+00  2.718764612842E+00
  2.638420492871E+00  2.557295971357E+00  2.475625868508E+00  2.393645783897E+00
  2.311589866008E+00  2.229688438816E+00  2.148165535976E+00  2.067236404833E+00
  1.987105052349E+00  1.907961912623E+00  1.829981719962E+00  1.753321671908E+00
  1.678119962692E+00  1.604494952094E+00  1.532545604135E+00  1.462353323996E+00
  1.393985219565E+00  1.327498273286E+00  1.262940535599E+00  1.200350719843E+00
  1.139758932375E+00  1.081187020992E+00  1.024648999856E+00  9.701514800498E-01
  9.176941082040E-01  8.672700102592E-01  8.188662375115E-01  7.724642123026E-01
  7.280401709207E-01  6.855656014776E-01  6.450076747380E-01  6.063296660506E-01
  5.694913667989E-01  5.344494838419E-01  5.011580258011E-01  4.695686750153E-01
  4.396311442884E-01  4.112935176579E-01  3.845025745661E-01  3.592040969503E-01
  3.353431588908E-01  3.128643985734E-01  2.917122724275E-01  2.718312913980E-01
  2.531662394038E-01  2.356623741164E-01  2.192656102757E-01  2.039226858329E-01
  1.895813112820E-01  1.761903026084E-01  1.636996983473E-01  1.520608613037E-01
  1.412265655391E-01  1.311510692838E-01  1.217901744751E-01  1.131012736626E-01
  1.050433850519E-01  9.757717648344E-02  9.066497915867E-02  8.427079193438E-02
  7.836027700483E-02  7.290074778303E-02  6.786114977485E-02  6.321203521500E-02
  5.892553220167E-02  5.497530902798E-02  5.133653436456E-02  4.798583389944E-02
  4.490124399051E-02  4.206216283420E-02  3.944929960310E-02  3.704462195855E-02
  3.483130230313E-02  3.279366310657E-02  3.091712161862E-02  2.918813427656E-02
  2.759414112402E-02  2.612351058007E-02  2.476548493042E-02  2.351012694713E-02
  2.234826807130E-02  2.127145859972E-02  2.027192029056E-02  1.934250173331E-02
  1.847663671431E-02  1.766830565709E-02  1.691200004889E-02  1.620268960542E-02
  1.553579180672E-02  1.490714337596E-02  1.431297327904E-02  1.374987688603E-02
  1.321479103545E-02  1.270496985469E-02  1.221796129104E-02  1.175158438477E-02
  1.130390736190E-02  1.087322664221E-02  1.045804685368E-02  1.005706192551E-02
  9.669137305511E-03  9.293293319564E-03  8.928689664023E-03  8.574610999700E-03
  8.230453598075E-03  7.895712977842E-03  7.569972462123E-03  7.252892583545E-03
  6.944201265379E-03  6.643684711552E-03  6.351178946018E-03  6.066561951850E-03
  5.789746371713E-03  5.520672743005E-03  5.259303251824E-03  5.005615999209E-03
  4.759599779802E-03  4.521249376874E-03  4.290561378367E-03  4.067530516398E-03
  3.852146528148E-03  3.644391529880E-03  3.444237888836E-03  3.251646570639E-03
  3.066565933307E-03  2.888930933478E-03  2.718662706259E-03  2.555668477370E-03
  2.399841767051E-03  2.251062832226E-03  2.109199327338E-03  1.974107121920E-03
  1.845631249122E-03  1.723606949031E-03  1.607860776235E-03  1.498211744565E-03
  1.394472485407E-03  1.296450399416E-03  1.203948784598E-03  1.116767926825E-03
  1.034706141531E-03  9.575607579044E-04  8.851290391013E-04  8.172090340149E-04
  7.536003578630E-04  6.941049003694E-04  6.385274615906E-04  5.866763165218E-04
  5.383637105007E-04  4.934062881496E-04  4.516254591509E-04  4.128477045732E-04
  3.769048277576E-04  3.436341539494E-04  3.128786829413E-04  2.844871989853E-04
  2.583143421431E-04  2.342206451003E-04  2.120725392667E-04  1.917423337488E-04
  1.731081705081E-04  1.560539587366E-04  1.404692911845E-04  1.262493448851E-04
  1.132947684401E-04  1.015115577643E-04  9.081092194984E-05  8.110914069323E-05
  7.232741454739E-05  6.439170910316E-05  5.723259408107E-05  5.078507821515E-05
  4.498844073664E-05  3.978606021224E-05  3.512524145446E-05  3.095704119748E-05
  2.723609321569E-05  2.392043355076E-05  2.097132650265E-05  1.835309202854E-05
  1.603293517817E-05  1.398077817381E-05  1.216909571661E-05  1.057275406836E-05
  9.168854418451E-06  7.936581001270E-06  6.857054379014E-06  5.913190251367E-06
  5.089564096592E-06  4.372281890226E-06  3.748857088714E-06  3.208094007056E-06
  2.739977663007E-06  2.335570106451E-06  1.986913201954E-06  1.686937785987E-06
  1.429379078175E-06  1.208698188605E-06  1.020009530900E-06  8.590139234015E-07
  7.219371384581E-07  6.054736422175E-07  5.067352543441E-07  4.232044483359E-07
  3.526920083197E-07  2.932987569483E-07  2.433810709234E-07  2.015199053210E-07
  1.664930548983E-07  1.372503895247E-07  1.128918114354E-07  9.264769380267E-08
  7.586157283598E-08  6.197487897355E-08  5.051350644018E-08  4.107603430480E-08
  3.332342596688E-08  2.697004757150E-08  2.177585905683E-08  1.753964426202E-08
  1.409315868156E-08  1.129608497598E-08  9.031697194402E-09  7.203144802028E-09
  5.730277022459E-09  4.546936700760E-09  3.598660877196E-09  2.840732555127E-09
  2.236534772648E-09  1.756164080250E-09  1.375265919427E-09  1.074059228386E-09
  8.365219097911E-10  6.497126218960E-10  5.032077378957E-10  3.886352980516E-10
  2.992903924431E-10  2.298186951452E-10  1.759568571006E-10  1.343201867716E-10
  1.022295343711E-10  7.757057431703E-11  5.867977646029E-11  4.425229226969E-11
  3.326777799136E-11  2.493085122482E-11  1.862344678881E-11  1.386681676852E-11
  1.029132111698E-11  7.612490446299E-12  5.612121581622E-12  4.123397673856E-12
  3.019215632170E-12  2.203060771074E-12  1.601897384295E-12  1.160649168551E-12
  8.379290297390E-13  6.027472022018E-13  4.319826559511E-13  3.084478546796E-13
  2.194130621385E-13  1.554852423609E-13  1.097595403087E-13  7.717950196176E-14
  5.405653113148E-14  3.771034838640E-14  2.620103730596E-14  1.813013887092E-14
  1.249359286004E-14  8.573452411112E-15  5.858475774616E-15  3.986135867161E-15
  2.700448515678E-15  1.821434495151E-15  1.223100911776E-15  8.176341914971E-16
  5.441021985751E-16  3.604150958954E-16  2.376307309523E-16  1.559391484338E-16
  1.018441737966E-16  6.619433227144E-17  0.000000000000E+00  0.000000000000E+00
  0.000000000000E+00  0.000000000000E+00
</data>
</radfunc>
</valence-charge>
<pseudocore-charge matching-radius="0.989166776931"
 number-of-continuous-derivatives="4">
<annotation model-charge-form="Teter function with specified parameters" />
<radfunc>
<data npts="291">
  2.834776958553E+01  2.834629602220E+01  2.834189094842E+01  2.833454144601E+01
  2.832375655424E+01  2.830999430898E+01  2.829245265789E+01  2.827236339582E+01
  2.824977190240E+01  2.822342226414E+01  2.819371603705E+01  2.816142057316E+01
  2.812238014293E+01  2.808159530518E+01  2.804084091899E+01  2.799388347833E+01
  2.793979104473E+01  2.788849773226E+01  2.783081162182E+01  2.776595101730E+01
  2.769304268646E+01  2.762827052815E+01  2.755717659517E+01  2.747916189781E+01
  2.739357447367E+01  2.729970550798E+01  2.719678534930E+01  2.711315591497E+01
  2.702358984557E+01  2.692768705383E+01  2.682502376998E+01  2.671515165846E+01
  2.659759699202E+01  2.647185990356E+01  2.633741373985E+01  2.619370454465E+01
  2.604015070340E+01  2.587614278619E+01  2.576068283900E+01  2.564009844690E+01
  2.551418871434E+01  2.538274753808E+01  2.524556376268E+01  2.510242137701E+01
  2.495309975632E+01  2.479737395426E+01  2.463501504993E+01  2.446579055499E+01
  2.428946488649E+01  2.410579991109E+01  2.391455556676E+01  2.371549056836E+01
  2.350836320353E+01  2.329293222578E+01  2.306895785158E+01  2.283620286853E+01
  2.259443386161E+01  2.234342256455E+01  2.208294734301E+01  2.181279481628E+01
  2.153276162356E+01  2.124265634033E+01  2.094230154967E+01  2.063153607236E+01
  2.031021735822E+01  1.997822403994E+01  1.963545864861E+01  1.946001320541E+01
  1.928185048806E+01  1.910096633957E+01  1.891735866278E+01  1.873102752271E+01
  1.854197525103E+01  1.835020655221E+01  1.815572861159E+01  1.795855120480E+01
  1.775868680871E+01  1.755615071347E+01  1.735096113552E+01  1.714313933129E+01
  1.693270971139E+01  1.671969995487E+01  1.650414112339E+01  1.628606777484E+01
  1.606551807614E+01  1.584253391469E+01  1.561716100818E+01  1.538944901232E+01
  1.515945162580E+01  1.492722669229E+01  1.469283629861E+01  1.445634686877E+01
  1.421782925310E+01  1.397735881190E+01  1.373501549297E+01  1.349088390226E+01
  1.324505336698E+01  1.299761799041E+01  1.274867669751E+01  1.249833327081E+01
  1.224669637535E+01  1.199387957222E+01  1.174000131958E+01  1.148518496031E+01
  1.122955869551E+01  1.097325554282E+01  1.071641327874E+01  1.045917436398E+01
  1.020168585098E+01  9.944099272721E+00  9.686570511980E+00  9.429259650109E+00
  9.172330794646E+00  8.915951884944E+00  8.660294475124E+00  8.405533493718E+00
  8.151846979438E+00  7.899415792588E+00  7.648423301732E+00  7.399055045339E+00
  7.151498368249E+00  6.905942032937E+00  6.662575805677E+00  6.421590017905E+00
  6.183175103212E+00  5.947521110600E+00  5.714817194834E+00  5.485251084925E+00
  5.259008531992E+00  5.036272738006E+00  4.817223767133E+00  4.602037941657E+00
  4.390887224733E+00  4.183938592450E+00  3.981353397983E+00  3.783286730867E+00
  3.589886774687E+00  3.401294166748E+00  3.217641363538E+00  3.039052016051E+00
  2.865640359240E+00  2.697510620113E+00  2.534756449137E+00  2.377460379803E+00
  2.225693321311E+00  2.079514089424E+00  1.938968980596E+00  1.804091394474E+00
  1.674901509807E+00  1.551406018706E+00  1.433597924014E+00  1.321456404314E+00
  1.214946750786E+00  1.114020379766E+00  1.018614924399E+00  9.286544082336E-01
  8.440495030430E-01  7.646978724381E-01  6.904846021191E-01  6.212827167767E-01
  5.569537827803E-01  4.973485948475E-01  4.423079439052E-01  3.916634623275E-01
  3.452385416864E-01  3.028493170915E-01  2.643057111380E-01  2.294125294518E-01
  1.979705988273E-01  1.697779380236E-01  1.446309504389E-01  1.223256271403E-01
  1.026587481103E-01  8.542906910542E-02  7.043848122150E-02  5.749313015367E-02
  4.640448223124E-02  3.699032462414E-02  2.907568766157E-02  2.249367798526E-02
  1.708621227883E-02  1.270464256854E-02  9.210265567703E-03  6.474710222656E-03
  4.380199486803E-03  2.819684373478E-03  1.696850479378E-03  9.259993865456E-04
  4.318095932128E-04  1.489838389601E-04  2.179182085092E-05  3.519285414579E-06
  5.583626727792E-05  1.480987711652E-04  2.565994058964E-04  3.637833289028E-04
  4.574463078937E-04  5.299317233777E-04  5.773429050396E-04  5.987863140669E-04
  5.956597656518E-04  5.709981607767E-04  5.288871104460E-04  4.739524512789E-04
  4.109310461510E-04  3.443255272649E-04  2.781428710909E-04  2.157140002349E-04
  1.595890928929E-04  1.115010488228E-04  7.238770537948E-05  4.246199744548E-05
  2.131837113744E-05  8.063429363358E-06  1.459017111340E-06  6.672616539715E-08
  2.384063737359E-06  6.964210157737E-06  1.251328537197E-05  1.796123101458E-05
  2.250466003200E-05  2.562219051163E-05  2.706473063066E-05  2.682479781012E-05
  2.509014092210E-05  2.218762463002E-05  1.852350161459E-05  1.452585385853E-05
  1.059418102217E-05  7.059941889898E-06  4.160433617372E-06  2.026862826455E-06
  6.859698743755E-07  7.325409762196E-08  5.483471091561E-08  4.543580389789E-07
  1.081173456121E-06  1.756246759174E-06  2.332911604330E-06  2.710485026215E-06
  2.839867255312E-06  2.721366543692E-06  2.395993721906E-06  1.932233992513E-06
  1.410734888470E-06  9.094063599926E-07  4.911220026047E-07  1.956021713038E-07
  3.625612074023E-08  0.000000000000E+00  0.000000000000E+00  0.000000000000E+00
  0.000000000000E+00  0.000000000000E+00  0.000000000000E+00  0.000000000000E+00
  0.000000000000E+00  0.000000000000E+00  0.000000000000E+00  0.000000000000E+00
  0.000000000000E+00  0.000000000000E+00  0.000000000000E+00  0.000000000000E+00
  0.000000000000E+00  0.000000000000E+00  0.000000000000E+00  0.000000000000E+00
  0.000000000000E+00  0.000000000000E+00  0.000000000000E+00  0.000000000000E+00
  0.000000000000E+00  0.000000000000E+00  0.000000000000E+00  0.000000000000E+00
  0.000000000000E+00  0.000000000000E+00  0.000000000000E+00  0.000000000000E+00
  0.000000000000E+00  0.000000000000E+00  0.000000000000E+00  0.000000000000E+00
  0.000000000000E+00  0.000000000000E+00  0.000000000000E+00  0.000000000000E+00
  0.000000000000E+00  0.000000000000E+00  0.000000000000E+00
</data>
</radfunc>
</pseudocore-charge>
<semilocal-potentials set="scalar_relativistic">
<slps n="4" l="s" rc="1.71227334671">
<radfunc>
<data npts="291">
  3.776872678018E+01  3.774883727978E+01  3.768946731754E+01  3.759070559338E+01
  3.744643724021E+01  3.726346825897E+01  3.703206517854E+01  3.676951955057E+01
  3.647736972212E+01  3.614069330143E+01  3.576628890232E+01  3.536532482305E+01
  3.488886458594E+01  3.440050134862E+01  3.392181516637E+01  3.338147164050E+01
  3.277341257554E+01  3.221056099442E+01  3.159296493285E+01  3.091729576223E+01
  3.018047623505E+01  2.954515746795E+01  2.886779937334E+01  2.814749301581E+01
  2.738362967179E+01  2.657594939921E+01  2.572458840688E+01  2.505773138928E+01
  2.436703725379E+01  2.365308454282E+01  2.291661781894E+01  2.215855200488E+01
  2.137997454655E+01  2.058214515430E+01  1.976649292057E+01  1.893461066650E+01
  1.808824643597E+01  1.722929212933E+01  1.665065491329E+01  1.606794590855E+01
  1.548181262428E+01  1.489291976734E+01  1.430194639864E+01  1.370958294173E+01
  1.311652806961E+01  1.252348549805E+01  1.193116071500E+01  1.134025767715E+01
  1.075147550524E+01  1.016550521000E+01  9.583026480496E+00  9.004704565826E+00
  8.431187280324E+00  7.863102160675E+00  7.301053801819E+00  6.745621396359E+00
  6.197356499993E+00  5.656781043050E+00  5.124385605758E+00  4.600627972354E+00
  4.085931976636E+00  3.580686649195E+00  3.085245674224E+00  2.599927161660E+00
  2.125013738371E+00  1.660752960212E+00  1.207358044960E+00  9.847927795817E-01
  7.650089244123E-01  5.480239944124E-01  3.338536121641E-01  1.225115674896E-01
 -8.599011827107E-02 -2.916411233856E-01 -4.944327523622E-01 -6.943578581821E-01
 -8.914107602539E-01 -1.085587158228E+00 -1.276884041799E+00 -1.465299596680E+00
 -1.650833106929E+00 -1.833484853819E+00 -2.013256011504E+00 -2.190148539723E+00
 -2.364165073824E+00 -2.535308812429E+00 -2.703583403081E+00 -2.868992826265E+00
 -3.031541278207E+00 -3.191233052921E+00 -3.348072424014E+00 -3.502063526780E+00
 -3.653210241176E+00 -3.801516076350E+00 -3.946984057379E+00 -4.089616614969E+00
 -4.229415478921E+00 -4.366381576208E+00 -4.500514934514E+00 -4.631814592307E+00
 -4.760278516129E+00 -4.885903526690E+00 -5.008685234115E+00 -5.128617984075E+00
 -5.245694815576E+00 -5.359907431638E+00 -5.471246184006E+00 -5.579700073030E+00
 -5.685256763792E+00 -5.787902619569E+00 -5.887622753613E+00 -5.984401100180E+00
 -6.078220505599E+00 -6.169062840062E+00 -6.256909130630E+00 -6.341739715779E+00
 -6.423534421523E+00 -6.502272758967E+00 -6.577934142737E+00 -6.650498129486E+00
 -6.719944675189E+00 -6.786254409613E+00 -6.849408925813E+00 -6.909391082016E+00
 -6.966185312770E+00 -7.019777945599E+00 -7.070157518897E+00 -7.117315096150E+00
 -7.161244571008E+00 -7.201942957163E+00 -7.239410656392E+00 -7.273651697699E+00
 -7.304673939993E+00 -7.332489230470E+00 -7.357113510600E+00 -7.378566861632E+00
 -7.396873481638E+00 -7.412061586467E+00 -7.424163227632E+00 -7.433214021089E+00
 -7.439252782054E+00 -7.442321062740E+00 -7.442462591835E+00 -7.439722617075E+00
 -7.434147155134E+00 -7.425782156464E+00 -7.414672596522E+00 -7.400861509092E+00
 -7.384388982099E+00 -7.365291141242E+00 -7.343599152086E+00 -7.319338276523E+00
 -7.292527024865E+00 -7.263176449874E+00 -7.231289633568E+00 -7.196861421480E+00