<?xml version="1.0" encoding="UTF-8" ?>
<psml version="1.1" energy_unit="hartree" length_unit="bohr"
 uuid="3bfec760-470d-11e8-41f0-fa07d67b035f"
 xmlns="http://esl.cecam.org/PSML/ns/1.1">
<provenance creator="ONCVPSP-3.3.0+psml-3.3.0-73 (fully-relativistic)"
 date="2018-04-23">
<annotation action="semilocal-pseudopotential-generation"
 action-cont="projectors-generation" />
<input-file name="oncvpsp-input">
<![CDATA[# atsym z nc nv iexc psfile
Pb 82 12 3 4 both
# n l f
1 0 2.0
2 0 2.0
2 1 6.0
3 0 2.0
3 1 6.0
3 2 10.0
4 0 2.0
4 1 6.0
4 2 10.0
5 0 2.0
5 1 6.0
4 3 14.0
5 2 10.0
6 0 2.0
6 1 2.0
# lmax
2
# l rc ep ncon nbas qcut
0 2.4 0.0 4 7 3.2
1 2.4 0.0 4 8 6.1
2 2.1 0.0 4 7 7.2
# lloc lpopt rc5 dvloc0
4 5 2.1 0.0
# l nproj debl
0 2 1.8
1 2 2.7
2 2 1.0
# icmod fcfact rcfact
3 6.0 1.34
# epsh1 epsh2 depsh
-15.0 12.0 0.02
# rlmax drl
6.0 0.01
 0
]]>
</input-file>
</provenance>
<pseudo-atom-spec atomic-label="Pb" atomic-number="82" z-pseudo="14"
 flavor="Hamann&apos;s oncvpsp" relativity="dirac" spin-dft="no"
 core-corrections="yes">
<annotation pseudo-energy="-60.1524562928" />
<exchange-correlation>
<annotation oncvpsp-xc-code="4" oncvpsp-xc-type="GGA -- Perdew-Burke-Ernzerhof" />
<libxc-info number-of-functionals="2">
<functional name="Perdew, Burke &amp; Ernzerhof (GGA)" type="exchange" id="101" />
<functional name="Perdew, Burke &amp; Ernzerhof (GGA)" type="correlation"
 id="130" />
</libxc-info>
</exchange-correlation>
<valence-configuration total-valence-charge="14">
<shell n="5" l="d" occupation="10" />
<shell n="6" l="s" occupation="2" />
<shell n="6" l="p" occupation="2" />
</valence-configuration>
</pseudo-atom-spec>
<grid npts="457">
<annotation type="sampled from oncvpsp log grid"
 recipe="r(i:1..N) = r1*exp(a*(i-1)) + r=0; resampled"
 recipe-cont="r1: scale; a: step" scale="0.609756097561E-05"
 step="0.119285708653E-01" delta="0.500000000000E-02" rmax="44.0711828530" />
<grid-data>
  0.000000000000E+00  5.032510521928E-03  1.005204483031E-02  1.507967014897E-02
  2.031910874069E-02  2.548791981066E-02  3.084768604356E-02  3.602211884327E-02
  4.107285502462E-02  4.627644805099E-02  5.152104103689E-02  5.667985490806E-02
  6.235522201693E-02  6.778543968363E-02  7.281477174075E-02  7.821725444879E-02
  8.402057367273E-02  8.918425832686E-02  9.466528953126E-02  1.004831705747E-01
  1.066586033671E-01  1.118711087980E-01  1.173383542312E-01  1.230727890481E-01
  1.290874710433E-01  1.353960961578E-01  1.420130296658E-01  1.471870937611E-01
  1.525496683003E-01  1.581076214217E-01  1.638680714953E-01  1.698383962400E-01
  1.760262421726E-01  1.824395344007E-01  1.890864867735E-01  1.959756124011E-01
  2.031157345580E-01  2.105159979834E-01  2.155986962387E-01  2.208041111607E-01
  2.261352056205E-01  2.315950140250E-01  2.371866440437E-01  2.429132783775E-01
  2.487781765706E-01  2.547846768657E-01  2.609361981040E-01  2.672362416710E-01
  2.736883934899E-01  2.802963260623E-01  2.870638005588E-01  2.939946689595E-01
  3.010928762468E-01  3.083624626509E-01  3.158075659492E-01  3.234324238214E-01
  3.312413762622E-01  3.392388680507E-01  3.474294512809E-01  3.558177879526E-01
  3.644086526249E-01  3.732069351339E-01  3.822176433758E-01  3.914459061574E-01
  4.008969761157E-01  4.105762327070E-01  4.204891852695E-01  4.255350554928E-01
  4.306414761587E-01  4.358091738726E-01  4.410388839590E-01  4.463313505666E-01
  4.516873267734E-01  4.571075746946E-01  4.625928655910E-01  4.681439799781E-01
  4.737617077378E-01  4.794468482307E-01  4.852002104094E-01  4.910226129343E-01
  4.969148842895E-01  5.028778629010E-01  5.089123972558E-01  5.150193460229E-01
  5.211995781752E-01  5.274539731133E-01  5.337834207906E-01  5.401888218401E-01
  5.466710877022E-01  5.532311407546E-01  5.598699144437E-01  5.665883534170E-01
  5.733874136580E-01  5.802680626219E-01  5.872312793734E-01  5.942780547259E-01
  6.014093913826E-01  6.086263040792E-01  6.159298197281E-01  6.233209775648E-01
  6.308008292956E-01  6.383704392472E-01  6.460308845181E-01  6.537832551324E-01
  6.616286541939E-01  6.695681980443E-01  6.776030164208E-01  6.857342526179E-01
  6.939630636493E-01  7.022906204131E-01  7.107181078580E-01  7.192467251523E-01
  7.278776858541E-01  7.366122180844E-01  7.454515647014E-01  7.543969834778E-01
  7.634497472795E-01  7.726111442469E-01  7.818824779779E-01  7.912650677136E-01
  8.007602485262E-01  8.103693715085E-01  8.200938039666E-01  8.299349296142E-01
  8.398941487695E-01  8.499728785548E-01  8.601725530974E-01  8.704946237346E-01
  8.809405592194E-01  8.915118459301E-01  9.022099880812E-01  9.130365079382E-01
  9.239929460335E-01  9.350808613859E-01  9.463018317225E-01  9.576574537032E-01
  9.691493431476E-01  9.807791352654E-01  9.925484848885E-01  1.004459066707E+00
  1.016512575508E+00  1.028710726414E+00  1.041055255131E+00  1.053547918192E+00
  1.066190493211E+00  1.078984779129E+00  1.091932596479E+00  1.105035787636E+00
  1.118296217088E+00  1.131715771693E+00  1.145296360953E+00  1.159039917285E+00
  1.172948396292E+00  1.187023777048E+00  1.201268062372E+00  1.215683279121E+00
  1.230271478470E+00  1.245034736212E+00  1.259975153047E+00  1.275094854883E+00
  1.290395993142E+00  1.305880745059E+00  1.321551314000E+00  1.337409929768E+00
  1.353458848925E+00  1.369700355112E+00  1.386136759374E+00  1.402770400486E+00
  1.419603645292E+00  1.436638889036E+00  1.453878555704E+00  1.471325098372E+00
  1.488980999553E+00  1.506848771548E+00  1.524930956806E+00  1.543230128288E+00
  1.561748889827E+00  1.580489876505E+00  1.599455755023E+00  1.618649224084E+00
  1.638073014773E+00  1.657729890950E+00  1.677622649641E+00  1.697754121437E+00
  1.718127170894E+00  1.738744696945E+00  1.759609633308E+00  1.780724948908E+00
  1.802093648295E+00  1.823718772074E+00  1.845603397339E+00  1.867750638107E+00
  1.890163645765E+00  1.912845609514E+00  1.935799756828E+00  1.959029353910E+00
  1.982537706157E+00  2.006328158631E+00  2.030404096534E+00  2.054768945693E+00
  2.079426173041E+00  2.104379287117E+00  2.129631838563E+00  2.155187420626E+00
  2.181049669673E+00  2.207222265709E+00  2.233708932898E+00  2.260513440092E+00
  2.287639601374E+00  2.315091276590E+00  2.342872371909E+00  2.370986840372E+00
  2.399438682457E+00  2.428231946646E+00  2.457370730006E+00  2.486859178766E+00
  2.516701488911E+00  2.546901906778E+00  2.577464729659E+00  2.608394306415E+00
  2.639695038092E+00  2.671371378549E+00  2.703427835092E+00  2.735868969113E+00
  2.768699396742E+00  2.801923789503E+00  2.835546874977E+00  2.869573437477E+00
  2.904008318727E+00  2.938856418551E+00  2.974122695574E+00  3.009812167921E+00
  3.045929913936E+00  3.082481072903E+00  3.119470845778E+00  3.156904495927E+00
  3.194787349879E+00  3.233124798077E+00  3.271922295654E+00  3.311185363202E+00
  3.350919587560E+00  3.391130622611E+00  3.431824190082E+00  3.473006080363E+00
  3.514682153328E+00  3.556858339168E+00  3.599540639238E+00  3.642735126908E+00
  3.686447948431E+00  3.730685323813E+00  3.775453547698E+00  3.820758990271E+00
  3.866608098154E+00  3.913007395332E+00  3.959963484076E+00  4.007483045885E+00
  4.055572842435E+00  4.104239716545E+00  4.153490593143E+00  4.203332480261E+00
  4.253772470024E+00  4.304817739664E+00  4.356475552540E+00  4.408753259171E+00
  4.461658298281E+00  4.515198197860E+00  4.569380576234E+00  4.624213143149E+00
  4.679703700867E+00  4.735860145277E+00  4.792690467021E+00  4.850202752625E+00
  4.908405185656E+00  4.967306047884E+00  5.026913720459E+00  5.087236685104E+00
  5.148283525326E+00  5.210062927630E+00  5.272583682761E+00  5.335854686954E+00
  5.399884943198E+00  5.464683562516E+00  5.530259765266E+00  5.596622882449E+00
  5.663782357039E+00  5.731747745323E+00  5.800528718267E+00  5.870135062886E+00
  5.940576683641E+00  6.011863603845E+00  6.084005967091E+00  6.157014038696E+00
  6.230898207160E+00  6.305668985646E+00  6.381337013474E+00  6.457913057636E+00
  6.535408014327E+00  6.613832910499E+00  6.693198905425E+00  6.773517292290E+00
  6.854799499798E+00  6.937057093795E+00  7.020301778921E+00  7.104545400268E+00
  7.189799945071E+00  7.276077544412E+00  7.363390474945E+00  7.451751160644E+00
  7.541172174572E+00  7.631666240667E+00  7.723246235555E+00  7.815925190382E+00
  7.909716292666E+00  8.004632888178E+00  8.100688482836E+00  8.197896744630E+00
  8.296271505566E+00  8.395826763633E+00  8.496576684796E+00  8.598535605014E+00
  8.701718032274E+00  8.806138648661E+00  8.911812312445E+00  9.018754060195E+00
  9.126979108917E+00  9.236502858224E+00  9.347340892523E+00  9.459508983233E+00
  9.573023091032E+00  9.687899368124E+00  9.804154160542E+00  9.921804010468E+00
  1.004086565859E+01  1.016135604650E+01  1.028329231905E+01  1.040669182688E+01
  1.053157212881E+01  1.065795099435E+01  1.078584640628E+01  1.091527656316E+01
  1.104625988192E+01  1.117881500050E+01  1.131296078051E+01  1.144871630987E+01
  1.158610090559E+01  1.172513411646E+01  1.186583572586E+01  1.200822575457E+01
  1.215232446362E+01  1.229815235718E+01  1.244573018547E+01  1.259507894770E+01
  1.274621989507E+01  1.289917453381E+01  1.305396462821E+01  1.321061220375E+01
  1.336913955020E+01  1.352956922480E+01  1.369192405550E+01  1.385622714416E+01
  1.402250186989E+01  1.419077189233E+01  1.436106115504E+01  1.453339388890E+01
  1.470779461557E+01  1.488428815096E+01  1.506289960877E+01  1.524365440407E+01
  1.542657825692E+01  1.561169719600E+01  1.579903756236E+01  1.598862601310E+01
  1.618048952526E+01  1.637465539956E+01  1.657115126436E+01  1.677000507953E+01
  1.697124514049E+01  1.717490008217E+01  1.738099888316E+01  1.758957086976E+01
  1.780064572019E+01  1.801425346883E+01  1.823042451046E+01  1.844918960459E+01
  1.867057987984E+01  1.889462683840E+01  1.912136236046E+01  1.935081870879E+01
  1.958302853329E+01  1.981802487569E+01  2.005584117420E+01  2.029651126829E+01
  2.054006940351E+01  2.078655023635E+01  2.103598883919E+01  2.128842070526E+01
  2.154388175372E+01  2.180240833477E+01  2.206403723478E+01  2.232880568160E+01
  2.259675134978E+01  2.286791236598E+01  2.314232731437E+01  2.342003524214E+01
  2.370107566505E+01  2.398548857303E+01  2.427331443590E+01  2.456459420913E+01
  2.485936933964E+01  2.515768177172E+01  2.545957395298E+01  2.576508884042E+01
  2.607426990650E+01  2.638716114538E+01  2.670380707912E+01  2.702425276407E+01
  2.734854379724E+01  2.767672632281E+01  2.800884703868E+01  2.834495320315E+01
  2.868509264158E+01  2.902931375328E+01  2.937766551832E+01  2.973019750454E+01
  3.008695987460E+01  3.044800339309E+01  3.081337943381E+01  3.118313998701E+01
  3.155733766686E+01  3.193602571886E+01  3.231925802749E+01  3.270708912382E+01
  3.309957419330E+01  3.349676908362E+01  3.389873031263E+01  3.430551507638E+01
  3.471718125729E+01  3.513378743238E+01  3.555539288157E+01  3.598205759615E+01
  3.641384228730E+01  3.685080839475E+01  3.729301809549E+01  3.774053431263E+01
  3.819342072439E+01  3.865174177308E+01  3.911556267436E+01  3.958494942645E+01
  4.005996881956E+01  4.054068844540E+01  4.102717670674E+01  4.151950282723E+01
  4.201773686115E+01  4.252194970349E+01  4.303221309993E+01  4.354859965713E+01
  4.407118285301E+01
</grid-data>
</grid>
<valence-charge total-charge="14" is-unscreening-charge="yes"
 rescaled-to-z-pseudo="no">
<radfunc>
<data npts="457">
  1.880059090468E-02  1.880520530489E-02  1.881986883064E-02  1.884723339620E-02
  1.889395198487E-02  1.896490041192E-02  1.907374478310E-02  1.922373048577E-02
  1.942468866347E-02  1.970223095340E-02  2.007080452217E-02  2.053838767527E-02
  2.119654805883E-02  2.199260748724E-02  2.289866196595E-02  2.407949442229E-02
  2.562110522497E-02  2.726198455798E-02  2.931520880859E-02  3.188605530852E-02
  3.510656266718E-02  3.826057984422E-02  4.203891158915E-02  4.656523757187E-02
  5.198728921266E-02  5.848133090324E-02  6.625740666337E-02  7.307946027674E-02
  8.088471976735E-02  8.981237291921E-02  1.000204874507E-01  1.116883600348E-01
  1.250191053462E-01  1.402424963557E-01  1.576180636888E-01  1.774384570072E-01
  2.000330647218E-01  2.257718794857E-01  2.448806862613E-01  2.657049938846E-01
  2.883898278294E-01  3.130910451744E-01  3.399759207286E-01  3.692237279442E-01
  4.010263066626E-01  4.355886082429E-01  4.731292069366E-01  5.138807645049E-01
  5.580904329948E-01  6.060201783146E-01  6.579470047560E-01  7.141630579137E-01
  7.749755805561E-01  8.407066929219E-01  9.116929656797E-01  9.882847504311E-01
  1.070845229210E+00  1.159749141004E+00  1.255381139981E+00  1.358133736951E+00
  1.468404772791E+00  1.586594370217E+00  1.713101308668E+00  1.848318766363E+00
  1.992629374053E+00  2.146399526969E+00  2.309972905326E+00  2.395535210616E+00
  2.483663159716E+00  2.574389924088E+00  2.667745726508E+00  2.763757536234E+00
  2.862448750084E+00  2.963838859550E+00  3.067943104161E+00  3.174772111426E+00
  3.284331523783E+00  3.396621613109E+00  3.511636883490E+00  3.629365663064E+00
  3.749789685942E+00  3.872883665354E+00  3.998614859332E+00  4.126942630477E+00
  4.257818001491E+00  4.391183208417E+00  4.526971253724E+00  4.665105461591E+00
  4.805499038016E+00  4.948054638569E+00  5.092663946907E+00  5.239207267373E+00
  5.387553135303E+00  5.537557948871E+00  5.689065626604E+00  5.841907294897E+00
  5.995901010138E+00  6.150851520260E+00  6.306550070741E+00  6.462774260293E+00
  6.619287951614E+00  6.775841242751E+00  6.932170504697E+00  7.087998490926E+00
  7.243034524591E+00  7.396974769074E+00  7.549502587482E+00  7.700288996552E+00
  7.848993220183E+00  7.995263347523E+00  8.138737100173E+00  8.279042712576E+00
  8.415799929128E+00  8.548621120859E+00  8.677112523794E+00  8.800875600227E+00
  8.919508523173E+00  9.032607783169E+00  9.139769915417E+00  9.240593343959E+00
  9.334680338185E+00  9.421639075460E+00  9.501085802100E+00  9.572647083258E+00
  9.635962130562E+00  9.690685194571E+00  9.736488007356E+00  9.773062258656E+00
  9.800122087341E+00  9.817406568135E+00  9.824682171921E+00  9.821745176403E+00
  9.808424002500E+00  9.784581450631E+00  9.750116810067E+00  9.704967813799E+00
  9.649112410918E+00  9.582570328462E+00  9.505404394910E+00  9.417721598275E+00
  9.319673852823E+00  9.211458450101E+00  9.093318172025E+00  8.965541046399E+00
  8.828459728302E+00  8.682450494414E+00  8.527931841386E+00  8.365362683924E+00
  8.195240153149E+00  8.018097001134E+00  7.834498623043E+00  7.645039714134E+00
  7.450340584742E+00  7.251043162302E+00  7.047806715250E+00  6.841303339236E+00
  6.632213251276E+00  6.421219942233E+00  6.209005242086E+00  5.996244355857E+00
  5.783600930509E+00  5.571722214699E+00  5.361234373701E+00  5.152738021152E+00
  4.946804027410E+00  4.743969661291E+00  4.544735117699E+00  4.349560478299E+00
  4.158863145979E+00  3.973015786463E+00  3.792344802278E+00  3.617129355489E+00
  3.447600946408E+00  3.283943546030E+00  3.126294270577E+00  2.974744577336E+00
  2.829341952342E+00  2.690092052457E+00  2.556961257317E+00  2.429879580613E+00
  2.308743885309E+00  2.193421343859E+00  2.083753082212E+00  1.979557945443E+00
  1.880636323145E+00  1.786773974174E+00  1.697745792765E+00  1.613319461432E+00
  1.533258940038E+00  1.457327745004E+00  1.385291977546E+00  1.316923064955E+00
  1.252000184243E+00  1.190312342790E+00  1.131660096054E+00  1.075856887864E+00
  1.022730004476E+00  9.721211394085E-01  9.238865723218E-01  8.778969717878E-01
  8.340368388769E-01  7.922036159424E-01  7.523061240996E-01  7.142613980331E-01
  6.779910573199E-01  6.434207221679E-01  6.104797496172E-01  5.791006876899E-01
  5.492188479352E-01  5.207718834730E-01  4.936994057756E-01  4.679426520269E-01
  4.434442146075E-01  4.201478421461E-01  3.979984193807E-01  3.769424257868E-01
  3.569286238042E-01  3.379081098311E-01  3.198341038698E-01  3.026619303248E-01
  2.863489288469E-01  2.708543763314E-01  2.561394087950E-01  2.421669444600E-01
  2.289016083485E-01  2.163096586406E-01  2.043589149985E-01  1.930186890276E-01
  1.822597169631E-01  1.720540947474E-01  1.623752154890E-01  1.531977093723E-01
  1.444973860264E-01  1.362511793444E-01  1.284370947285E-01  1.210341587212E-01
  1.140223709707E-01  1.073826584684E-01  1.010968319883E-01  9.514754465157E-02
  8.951825253510E-02  8.419317723901E-02  7.915727032722E-02  7.439617955306E-02
  6.989621678296E-02  6.564432753164E-02  6.162806202440E-02  5.783554770385E-02
  5.425546310165E-02  5.087701299824E-02  4.768990479818E-02  4.468432605075E-02
  4.185092305028E-02  3.918078045407E-02  3.666540185951E-02  3.429669128572E-02
  3.206693550873E-02  2.996878720252E-02  2.799524884164E-02  2.613965732434E-02
  2.439566927773E-02  2.275724700961E-02  2.121864507423E-02  1.977439741976E-02
  1.841930509060E-02  1.714842445652E-02  1.595705594380E-02  1.484073324449E-02
  1.379521298170E-02  1.281646480971E-02  1.190066192896E-02  1.104417199699E-02
  1.024354841734E-02  9.495521989213E-03  8.796992901741E-03  8.145023057162E-03
  7.536828708313E-03  6.969773396347E-03  6.441361175397E-03  5.949230111611E-03
  5.491146044634E-03  5.064996600338E-03  4.668785444211E-03  4.300626765499E-03
  3.958739982775E-03  3.641444662234E-03  3.347155640546E-03  3.074378344661E-03
  2.821704301443E-03  2.587806830463E-03  2.371436913742E-03  2.171419236576E-03
  1.986648393964E-03  1.816085257425E-03  1.658753497310E-03  1.513736255880E-03
  1.380172966675E-03  1.257256315808E-03  1.144229340961E-03  1.040382663939E-03
  9.450518527068E-04  8.576149088601E-04  7.774898764867E-04  7.041325683860E-04
  6.370344055784E-04  5.757203660119E-04  5.197470383453E-04  4.687007766509E-04
  4.221959518591E-04  3.798732957542E-04  3.413983333316E-04  3.064598993503E-04
  2.747687349555E-04  2.460561603132E-04  2.200728192873E-04  1.965874923023E-04
  1.753859736676E-04  1.562700097958E-04  1.390562949126E-04  1.235755210415E-04
  1.096714792371E-04  9.720020923408E-05  8.602919488019E-05  7.603660290976E-05
  6.711056280588E-05  5.914848567437E-05  5.205642021961E-05  4.574844406490E-05
  4.014608879715E-05  3.517779723879E-05  3.077841155632E-05  2.688869090691E-05
  2.345485740256E-05  2.042816923526E-05  1.776451985969E-05  1.542406217220E-05
  1.337085665791E-05  1.157254250429E-05  1.000003069973E-05  8.627218151651E-06
  7.430721871822E-06  6.389632287962E-06  5.485284751000E-06  4.701048318300E-06
  4.022130904551E-06  3.435399905030E-06  2.929217410704E-06  2.493289151469E-06
  2.118526322944E-06  1.796919473564E-06  1.521423652323E-06  1.285854043188E-06
  1.084791339760E-06  9.134961430617E-07  7.678316959346E-07  6.441942993621E-07
  5.394507886268E-07  4.508824803710E-07  3.761350350378E-07  3.131737125535E-07
  2.602435322266E-07  2.158338804451E-07  1.786471416478E-07  1.475709590488E-07
  1.216537615459E-07  1.000832220204E-07  8.216733973636E-08  6.731786568422E-08
  5.503581444486E-08  4.489882943197E-08  3.655019019041E-08  2.968927079104E-08
  2.406327728211E-08  1.946010966551E-08  1.570221000333E-08  1.264127307597E-08
  1.015370956465E-08  8.136764080147E-09  6.505201572364E-09  5.188485800735E-09
  4.128382692158E-09  3.276929632431E-09  2.594719097247E-09  2.049451598123E-09
  1.614718762616E-09  1.268982550124E-09  9.947211846197E-10  7.777164208588E-10
  6.064603043797E-10  4.716626881118E-10  3.658434759607E-10  2.829959192804E-10
  2.183093350147E-10  1.679413804994E-10  1.288315421582E-10  9.854880323096E-11
  7.516757591603E-11  5.716693981492E-11  4.334904273252E-11  3.277321069966E-11
  2.470289840524E-11  1.856310389854E-11  1.390628550731E-11  1.038516583681E-11
  7.731097431019E-12  5.736905839215E-12  4.243325923668E-12  3.128312716625E-12
  2.298644525563E-12  1.683348031351E-12  1.228566861140E-12  8.935699730413E-13
  6.476570610255E-13  4.677675176272E-13  3.366393284503E-13  2.413963297904E-13
  1.724679664567E-13  1.227662255880E-13  8.706077310111E-14  6.150628863324E-14
  4.328624380311E-14  3.034543740403E-14  2.118992997336E-14  1.473796457755E-14
  1.020930924685E-14  7.043439948395E-15  4.839286849728E-15  3.311038531108E-15
  2.255856077240E-15  1.530384390801E-15  1.033734677699E-15  6.952071422553E-16
  4.654712227993E-16  3.102569589403E-16  2.058622150584E-16  1.359672183980E-16
  8.938610255251E-17  5.848701631269E-17  3.808708690039E-17  2.468310269135E-17
  1.591070933672E-17  1.021080346068E-17  6.520121399066E-18  4.142386692599E-18
  2.618292485877E-18  1.646384490006E-18  1.029823022217E-18  6.407437318055E-19
  3.965229273075E-19  2.440537829549E-19  1.493848141294E-19  9.092857877635E-20
  5.503450792597E-20  0.000000000000E+00  0.000000000000E+00  0.000000000000E+00
  0.000000000000E+00
</data>
</radfunc>
</valence-charge>
<pseudocore-charge matching-radius="1.05354791819"
 number-of-continuous-derivatives="4">
<annotation model-charge-form="Teter function with specified parameters" />
<radfunc>
<data npts="290">
  5.600687645418E+01  5.600462792270E+01  5.599790600861E+01  5.598669055331E+01
  5.597023151734E+01  5.594922674291E+01  5.592245045348E+01  5.589178103847E+01
  5.585728602277E+01  5.581704525278E+01  5.577166874279E+01  5.572232558326E+01
  5.566266090080E+01  5.560031140730E+01  5.553798917204E+01  5.546615717064E+01
  5.538337872297E+01  5.530485222776E+01  5.521650198223E+01  5.511711682954E+01
  5.500534108105E+01  5.490598621429E+01  5.479687705146E+01  5.467707730385E+01
  5.454556529439E+01  5.440122712171E+01  5.424284948561E+01  5.411406292629E+01
  5.397604002490E+01  5.382814375202E+01  5.366969704513E+01  5.349998090507E+01
  5.331823250466E+01  5.312364333135E+01  5.291535739033E+01  5.269246949927E+01
  5.245402371132E+01  5.219901190962E+01  5.201927874277E+01  5.183138437595E+01
  5.163499012261E+01  5.142974644096E+01  5.121529292513E+01  5.099125834102E+01
  5.075726071233E+01  5.051290746308E+01  5.025779562319E+01  4.999151210424E+01
  4.971363405314E+01  4.942372929208E+01  4.912135685342E+01  4.880606761909E+01
  4.847740507453E+01  4.813490618766E+01  4.777810242427E+01  4.740652091145E+01
  4.701968576134E+01  4.661711956810E+01  4.619834509122E+01  4.576288713861E+01
  4.531027466350E+01  4.484004308880E+01  4.435173687288E+01  4.384491233049E+01
  4.331914072184E+01  4.277401162250E+01  4.220913658550E+01  4.191917992945E+01
  4.162415310581E+01  4.132401555628E+01  4.101872889563E+01  4.070825706272E+01
  4.039256647654E+01  4.007162619722E+01  3.974540809212E+01  3.941388700682E+01
  3.907704094106E+01  3.873485122948E+01  3.838730272709E+01  3.803438399944E+01
  3.767608751714E+01  3.731240985480E+01  3.694335189403E+01  3.656891903031E+01
  3.618912138354E+01  3.580397401186E+01  3.541349712855E+01  3.501771632150E+01
  3.461666277500E+01  3.421037349324E+01  3.379889152521E+01  3.338226619030E+01
  3.296055330414E+01  3.253381540397E+01  3.210212197290E+01  3.166554966236E+01
  3.122418251187E+01  3.077811216528E+01  3.032743808273E+01  2.987226774720E+01
  2.941271686466E+01  2.894890955683E+01  2.848097854535E+01  2.800906532609E+01
  2.753332033250E+01  2.705390308647E+01  2.657098233556E+01  2.608473617490E+01
  2.559535215251E+01  2.510302735625E+01  2.460796848107E+01  2.411039187463E+01
  2.361052355987E+01  2.310859923263E+01  2.260486423261E+01  2.209957348599E+01
  2.159299141775E+01  2.108539183213E+01  2.057705775922E+01  2.006828126603E+01
  1.955936323031E+01  1.905061307540E+01  1.854234846443E+01  1.803489495234E+01
  1.752858559434E+01  1.702376050920E+01  1.652076639643E+01  1.601995600602E+01
  1.552168755993E+01  1.502632412460E+01  1.453423293396E+01  1.404578466265E+01
  1.356135264943E+01  1.308131207118E+01  1.260603906786E+01  1.213590981969E+01
  1.167129957756E+01  1.121258164854E+01  1.076012633862E+01  1.031429985510E+01
  9.875463171856E+00  9.443970860776E+00  9.020169893504E+00  8.604398417949E+00
  8.196984514587E+00  7.798244938120E+00  7.408483850572E+00  7.027991552429E+00
  6.657043218950E+00  6.295897649272E+00  5.944796036390E+00  5.603960766584E+00
  5.273594257210E+00  4.953877842181E+00  4.644970714742E+00  4.347008937375E+00
  4.060104528858E+00  3.784344638535E+00  3.519790817880E+00  3.266478399270E+00
  3.024415991690E+00  2.793585102681E+00  2.573939895405E+00  2.365407089026E+00
  2.167886009864E+00  1.981248799865E+00  1.805340787822E+00  1.639981027637E+00
  1.484963006475E+00  1.340055524215E+00  1.205003743924E+00  1.079530411356E+00
  9.633372395544E-01  8.561064527303E-01  7.575024815087E-01  6.671737995823E-01
  5.847548897087E-01  5.098683249049E-01  4.421269486688E-01  3.811361361116E-01
  3.264961160760E-01  2.778043326733E-01  2.346578232465E-01  1.966555885965E-01
  1.634009304417E-01  1.345037305522E-01  1.095826458486E-01  8.826719401897E-02
  7.019970490234E-02  5.503711404653E-02  4.245257646931E-02  3.213688074839E-02
  2.379964611876E-02  1.717028824816E-02  1.199874275661E-02  8.055939295914E-03
  5.134023048664E-03  3.046324768597E-03  1.627084878444E-03  7.309415702258E-04
  2.321972091000E-04  2.388151237597E-05  1.663384322751E-05  1.374304069543E-04
  3.281850533504E-04  5.442546668161E-04  7.528816739305E-04  9.316069409897E-04
  1.066686217655E-03  1.151542278907E-03  1.185283026314E-03  1.171313062849E-03
  1.116062717506E-03  1.027854264062E-03  9.159202813084E-04  7.895838972400E-04
  6.576052285165E-04  5.276928677881E-04  4.061739943145E-04  2.978117972880E-04
  2.057546070390E-04  1.315976077672E-04  7.553540752305E-05  3.658217806494E-05
  1.283561216956E-05  1.761587979529E-06  4.781303378947E-07  6.019911084396E-06
  1.556797265075E-05  2.663338317314E-05  3.718789127303E-05  4.573907667494E-05
  5.135171522243E-05  5.362083254239E-05  5.260497986692E-05  4.873044759917E-05
  4.267832031092E-05  3.526642898346E-05  2.733741062448E-05  1.966235920807E-05
  1.286713365226E-05  7.385523137829E-06  3.440438050993E-06  1.051387296999E-06
  6.399383952752E-08  1.954201700562E-07  1.088486153599E-06  2.367039742216E-06
  3.685767811212E-06  4.768997276719E-06  5.434941020157E-06  5.604034342024E-06
  5.292201476399E-06  4.591809604024E-06  3.644472904502E-06  2.610597914164E-06
  1.640546394886E-06  8.515719215774E-07  3.134016227438E-07  4.370619535171E-08
  0.000000000000E+00  0.000000000000E+00  0.000000000000E+00  0.000000000000E+00
  0.000000000000E+00  0.000000000000E+00  0.000000000000E+00  0.000000000000E+00
  0.000000000000E+00  0.000000000000E+00  0.000000000000E+00  0.000000000000E+00
  0.000000000000E+00  0.000000000000E+00  0.000000000000E+00  0.000000000000E+00
  0.000000000000E+00  0.000000000000E+00  0.000000000000E+00  0.000000000000E+00
  0.000000000000E+00  0.000000000000E+00  0.000000000000E+00  0.000000000000E+00
  0.000000000000E+00  0.000000000000E+00  0.000000000000E+00  0.000000000000E+00
  0.000000000000E+00  0.000000000000E+00
</data>
</radfunc>
</pseudocore-charge>
<semilocal-potentials set="scalar_relativistic">
<slps n="6" l="s" rc="2.42823194665">
<radfunc>
<data npts="290">
  3.923148208547E+00  3.920868023373E+00  3.914054606043E+00  3.902696861818E+00
  3.886052479922E+00  3.864851616460E+00  3.837890913081E+00  3.807100202469E+00
  3.772582991565E+00  3.732468383545E+00  3.687429427424E+00  3.638686748142E+00
  3.580070576240E+00  3.519190826497E+00  3.458716377968E+00  3.389479414363E+00
  3.310303103953E+00  3.235792439277E+00  3.152649158060E+00  3.059982129595E+00
  2.956835904810E+00  2.866092335513E+00  2.767444945617E+00  2.660325646082E+00
  2.544148867586E+00  2.418315937363E+00  2.282220607054E+00  2.173049056742E+00
  2.057509539654E+00  1.935352856900E+00  1.806336911734E+00  1.670229522187E+00
  1.526811517143E+00  1.375880111199E+00  1.217252546796E+00  1.050769984229E+00
  8.763016112465E-01  6.937489343253E-01  5.675237281962E-01  4.376689060764E-01
  3.041849104671E-01  1.670815161013E-01  2.637841172725E-02 -1.178942324798E-01
 -2.656952175338E-01 -4.169717942023E-01 -5.716591736538E-01 -7.296800764548E-01
 -8.909443262516E-01 -1.055348494443E+00 -1.222775602029E+00 -1.393094884612E+00
 -1.566161626185E+00 -1.741817066939E+00 -1.919888389778E+00 -2.100188789617E+00
 -2.282517628797E+00 -2.466660681185E+00 -2.652390466644E+00 -2.839466676640E+00
 -3.027636690817E+00 -3.216636183419E+00 -3.406189817481E+00 -3.596012023826E+00
 -3.785807861055E+00 -3.975273951993E+00 -4.164099491380E+00 -4.258173159365E+00
 -4.351967319171E+00 -4.445441518739E+00 -4.538555053415E+00 -4.631267004186E+00
 -4.723536276598E+00 -4.815321640324E+00 -4.906581769349E+00 -4.997275282702E+00
 -5.087360785726E+00 -5.176796911837E+00 -5.265542364746E+00 -5.353555961113E+00
 -5.440796673618E+00 -5.527223674430E+00 -5.612796379058E+00 -5.697474490590E+00
 -5.781218044307E+00 -5.863987452694E+00 -5.945743550860E+00 -6.026447642381E+00
 -6.106061545609E+00 -6.184547640477E+00 -6.261868915859E+00 -6.337989017514E+00
 -6.412872296717E+00 -6.486483859613E+00 -6.558789617392E+00 -6.629756337373E+00
 -6.699351695087E+00 -6.767544327471E+00 -6.834303887269E+00 -6.899601098770E+00
 -6.963407814995E+00 -7.025697076458E+00 -7.086443171616E+00 -7.145621699154E+00
 -7.203209632191E+00 -7.259185384550E+00 -7.313528879168E+00 -7.366221618752E+00
 -7.417246758731E+00 -7.466589182551E+00 -7.514235579302E+00 -7.560174523667E+00
 -7.604396558085E+00 -7.646894276971E+00 -7.687662412808E+00 -7.726697923781E+00
 -7.764000082584E+00 -7.799570565886E+00 -7.833413543874E+00 -7.865535769103E+00
 -7.895946663819E+00 -7.924658404722E+00 -7.951686004014E+00 -7.977047385415E+00
 -8.000763453701E+00 -8.022858156131E+00 -8.043358534027E+00 -8.062294762633E+00
 -8.079700177263E+00 -8.095611283676E+00 -8.110067750534E+00 -8.123112381809E+00
 -8.134791066947E+00 -8.145152706698E+00 -8.154249112548E+00 -8.162134877833E+00
 -8.168867218717E+00 -8.174505783442E+00 -8.179112428420E+00 -8.182750959978E+00
 -8.185486840832E+00 -8.187386860591E+00 -8.188518769904E+00 -8.188950878106E+00
 -8.188751614540E+00 -8.187989053995E+00 -8.186730407009E+00 -8.185041476113E+00
 -8.182986079385E+00 -8.180625443086E+00 -8.178017565526E+00 -8.175216554789E+00
 -8.172271943501E+00 -8.169227984472E+00 -8.166122931863E+00 -8.162988313490E+00