Pb    ONCVPSP-3.3.0  r_core=   1.40277   1.50685   1.40277
82.0000     22.0000      180507    zatom,zion,pspd
8      11   2     4   600     0    pspcod,pspxc,lmax,lloc,mmax,r2well
5.99000000  6.00000000  0.00000000    rchrg fchrg qchrg
2     4     4     0    nproj
3     1           extension_switch
4     4     0    nprojso
0                         2.1170894593614D+00  1.6591504986700D+01
1  0.0000000000000D+00  2.0610571027646D-09 -6.9974082084201D-10
2  1.0000000000000D-02 -2.6528333747520D-02  8.2947583257542D-02
3  2.0000000000000D-02 -5.2802949383270D-02  1.6566869898568D-01
4  3.0000000000000D-02 -7.8572556532541D-02  2.4793796817885D-01
5  4.0000000000000D-02 -1.0359068617748D-01  3.2953217715971D-01
6  5.0000000000000D-02 -1.2761801657775D-01  4.1023133112663D-01
7  6.0000000000000D-02 -1.5042459897278D-01  4.8981967326790D-01
8  7.0000000000000D-02 -1.7179195212028D-01  5.6808665880078D-01
9  8.0000000000000D-02 -1.9151499678643D-01  6.4482787399339D-01
10  9.0000000000000D-02 -2.0940380382033D-01  7.1984589108116D-01
11  1.0000000000000D-01 -2.2528513237925D-01  7.9295105098443D-01
12  1.1000000000000D-01 -2.3900373817862D-01  8.6396216685348D-01
13  1.2000000000000D-01 -2.5042343526904D-01  9.3270714269480D-01
14  1.3000000000000D-01 -2.5942789873789D-01  9.9902350264762D-01
15  1.4000000000000D-01 -2.6592119983403D-01  1.0627588278624D+00
16  1.5000000000000D-01 -2.6982806925688D-01  1.1237710993609D+00
17  1.6000000000000D-01 -2.7109388867101D-01  1.1819289467056D+00
18  1.7000000000000D-01 -2.6968441483465D-01  1.2371118037573D+00
19  1.8000000000000D-01 -2.6558524499822D-01  1.2892099742205D+00
20  1.9000000000000D-01 -2.5880103636868D-01  1.3381246110506D+00
21  2.0000000000000D-01 -2.4935449638028D-01  1.3837676151047D+00
22  2.1000000000000D-01 -2.3728516419886D-01  1.4260614596214D+00
23  2.2000000000000D-01 -2.2264800725315D-01  1.4649389482178D+00
24  2.3000000000000D-01 -2.0551185957835D-01  1.5003429150496D+00
25  2.4000000000000D-01 -1.8595773132062D-01  1.5322258765974D+00
26  2.5000000000000D-01 -1.6407702084405D-01  1.5605496451869D+00
27  2.6000000000000D-01 -1.3996966246377D-01  1.5852849148220D+00
28  2.7000000000000D-01 -1.1374224387053D-01  1.6064108301925D+00
29  2.8000000000000D-01 -8.5506127790979D-02  1.6239145498047D+00
30  2.9000000000000D-01 -5.5375612329180D-02  1.6377908140737D+00
31  3.0000000000000D-01 -2.3466163754789D-02  1.6480415289073D+00
32  3.1000000000000D-01  1.0107245755482D-02  1.6546753748039D+00
33  3.2000000000000D-01  4.5231664739485D-02  1.6577074507917D+00
34  3.3000000000000D-01  8.1797525116292D-02  1.6571589616581D+00
35  3.4000000000000D-01  1.1969981545606D-01  1.6530569558708D+00
36  3.5000000000000D-01  1.5883904275903D-01  1.6454341203896D+00
37  3.6000000000000D-01  1.9912196441915D-01  1.6343286372299D+00
38  3.7000000000000D-01  2.4046207618500D-01  1.6197841051881D+00
39  3.8000000000000D-01  2.8277984637268D-01  1.6018495285875D+00
40  3.9000000000000D-01  3.2600269126170D-01  1.5805793732953D+00
41  4.0000000000000D-01  3.7006469144563D-01  1.5560336886014D+00
42  4.1000000000000D-01  4.1490605383306D-01  1.5282782918865D+00
43  4.2000000000000D-01  4.6047232892365D-01  1.4973850113499D+00
44  4.3000000000000D-01  5.0671339783518D-01  1.4634319804653D+00
45  4.4000000000000D-01  5.5358224824892D-01  1.4265039762946D+00
46  4.5000000000000D-01  6.0103356289075D-01  1.3866927923638D+00
47  4.6000000000000D-01  6.4902214829521D-01  1.3440976355010D+00
48  4.7000000000000D-01  6.9750123533294D-01  1.2988255348964D+00
49  4.8000000000000D-01  7.4642068624905D-01  1.2509917506794D+00
50  4.9000000000000D-01  7.9572514569541D-01  1.2007201685472D+00
51  5.0000000000000D-01  8.4535217538604D-01  1.1481436664436D+00
52  5.1000000000000D-01  8.9523041351351D-01  1.0934044389835D+00
53  5.2000000000000D-01  9.4527780089541D-01  1.0366542652708D+00
54  5.3000000000000D-01  9.9539991594274D-01  9.7805470596324D-01
55  5.4000000000000D-01  1.0454884599393D+00  9.1777721591308D-01
56  5.5000000000000D-01  1.0954199327864D+00  8.5600315944577D-01
57  5.6000000000000D-01  1.1450545372965D+00  7.9292371633751D-01
58  5.7000000000000D-01  1.1942353473501D+00  7.2873966779678D-01
59  5.8000000000000D-01  1.2427877717534D+00  6.6366105324755D-01
60  5.9000000000000D-01  1.2905193415452D+00  5.9790669041230D-01
61  6.0000000000000D-01  1.3372198437764D+00  5.3170355311331D-01
62  6.1000000000000D-01  1.3826618195871D+00  4.6528600328442D-01
63  6.2000000000000D-01  1.4266014386833D+00  3.9889487593011D-01
64  6.3000000000000D-01  1.4687797562793D+00  3.3277641810886D-01
65  6.4000000000000D-01  1.5089243522123D+00  2.6718108544969D-01
66  6.5000000000000D-01  1.5467513453841D+00  2.0236220218939D-01
67  6.6000000000000D-01  1.5819677700837D+00  1.3857449318758D-01
68  6.7000000000000D-01  1.6142742941188D+00  7.6072498828958D-02
69  6.8000000000000D-01  1.6433682522038D+00  1.5108886089791D-02
70  6.9000000000000D-01  1.6689469618129D+00 -4.4067328700336D-02
71  7.0000000000000D-01  1.6907112828126D+00 -1.0121262777476D-01
72  7.1000000000000D-01  1.7083693767106D+00 -1.5609089098301D-01
73  7.2000000000000D-01  1.7216406164728D+00 -2.0847532477080D-01
74  7.3000000000000D-01  1.7302595935815D+00 -2.5815039845928D-01
75  7.4000000000000D-01  1.7339801654742D+00 -3.0491376407868D-01
76  7.5000000000000D-01  1.7325794837589D+00 -3.4857813520908D-01
77  7.6000000000000D-01  1.7258619417266D+00 -3.8897309982448D-01
78  7.7000000000000D-01  1.7136629787290D+00 -4.2594684203784D-01
79  7.8000000000000D-01  1.6958526789863D+00 -4.5936774791778D-01
80  7.9000000000000D-01  1.6723391033679D+00 -4.8912587119830D-01
81  8.0000000000000D-01  1.6430712946589D+00 -5.1513423573263D-01
82  8.1000000000000D-01  1.6080418997694D+00 -5.3732995294534D-01
83  8.2000000000000D-01  1.5672893562522D+00 -5.5567513430201D-01
84  8.3000000000000D-01  1.5208995953238D+00 -5.7015758092587D-01
85  8.4000000000000D-01  1.4690072192719D+00 -5.8079123492393D-01
86  8.5000000000000D-01  1.4117961176231D+00 -5.8761637970876D-01
87  8.6000000000000D-01  1.3494994936468D+00 -5.9069957958837D-01
88  8.7000000000000D-01  1.2823992805971D+00 -5.9013335210541D-01
89  8.8000000000000D-01  1.2108249354097D+00 -5.8603556998449D-01
90  8.9000000000000D-01  1.1351516063001D+00 -5.7854859306656D-01
91  9.0000000000000D-01  1.0557976796870D+00 -5.6783813420379D-01
92  9.1000000000000D-01  9.7322172097547D-01 -5.5409186671311D-01
93  9.2000000000000D-01  8.8791883283538D-01 -5.3751778458777D-01
94  9.3000000000000D-01  8.0041646356195D-01 -5.1834233018762D-01
95  9.4000000000000D-01  7.1126970676415D-01 -4.9680830751692D-01
96  9.5000000000000D-01  6.2105614185370D-01 -4.7317260239985D-01
97  9.6000000000000D-01  5.3037027246933D-01 -4.4770373382679D-01
98  9.7000000000000D-01  4.3981762693573D-01 -4.2067926342035D-01
99  9.8000000000000D-01  3.5000859100454D-01 -3.9238309231216D-01
100  9.9000000000000D-01  2.6155204837095D-01 -3.6310267669923D-01
101  1.0000000000000D+00  1.7504890860596D-01 -3.3312619488671D-01
102  1.0100000000000D+00  9.1085605301236D-02 -3.0273969976745D-01
103  1.0200000000000D+00  1.0227649148321D-02 -2.7222429134070D-01
104  1.0300000000000D+00 -6.6986678651662D-02 -2.4185334403537D-01
105  1.0400000000000D+00 -1.4005240775067D-01 -2.1188982330170D-01
106  1.0500000000000D+00 -2.0850365177746D-01 -1.8258372508962D-01
107  1.0600000000000D+00 -2.7191899322462D-01 -1.5416967054949D-01
108  1.0700000000000D+00 -3.2992640421467D-01 -1.2686468657816D-01
109  1.0800000000000D+00 -3.8220763307498D-01 -1.0086620045385D-01
110  1.0900000000000D+00 -4.2850199287553D-01 -7.6350274277732D-02
111  1.1000000000000D+00 -4.6860949627886D-01 -5.3470101637383D-02
112  1.1100000000000D+00 -5.0239328862556D-01 -3.2354785868562D-02
113  1.1200000000000D+00 -5.2978134127623D-01 -1.3108415254790D-02
114  1.1300000000000D+00 -5.5076737715640D-01  4.1905534462236D-03
115  1.1400000000000D+00 -5.6541101126311D-01  1.9489596054763D-02
116  1.1500000000000D+00 -5.7383709902649D-01  3.2762103522781D-02
117  1.1600000000000D+00 -5.7623429686235D-01  4.4007047441740D-02
118  1.1700000000000D+00 -5.7285285133585D-01  5.3248334728590D-02
119  1.1800000000000D+00 -5.6400164447608D-01  6.0533862099354D-02
120  1.1900000000000D+00 -5.5004453107692D-01  6.5934284211147D-02
121  1.2000000000000D+00 -5.3139601764330D-01  6.9541514796803D-02
122  1.2100000000000D+00 -5.0851634112085D-01  7.1466983450442D-02
123  1.2200000000000D+00 -4.8190601407809D-01  7.1839674079428D-02
124  1.2300000000000D+00 -4.5209991051440D-01  7.0803973988486D-02
125  1.2400000000000D+00 -4.1966097650111D-01  6.8517366507752D-02
126  1.2500000000000D+00 -3.8517365321538D-01  6.5148001402110D-02
127  1.2600000000000D+00 -3.4923710424830D-01  6.0872178991900D-02
128  1.2700000000000D+00 -3.1245835701652D-01  5.5871790365148D-02
129  1.2800000000000D+00 -2.7544544121725D-01  5.0331747248820D-02
130  1.2900000000000D+00 -2.3880041213100D-01  4.4437366933196D-02
131  1.3000000000000D+00 -2.0311293558274D-01  3.8371952405398D-02
132  1.3100000000000D+00 -1.6895549263177D-01  3.2314917114680D-02
133  1.3200000000000D+00 -1.3686914122531D-01  2.6436753993374D-02
134  1.3300000000000D+00 -1.0734975297513D-01  2.0894124591499D-02
135  1.3400000000000D+00 -8.0833636265198D-02  1.5824688247524D-02
136  1.3500000000000D+00 -5.7692240187034D-02  1.1345000875652D-02
137  1.3600000000000D+00 -3.8240888962798D-02  7.5515301299789D-03
138  1.3700000000000D+00 -2.2671116596336D-02  4.5062883504572D-03
139  1.3800000000000D+00 -1.1104800734014D-02  2.2465069341203D-03
140  1.3900000000000D+00 -4.0070727061541D-03  8.7386612316005D-04
141  1.4000000000000D+00 -8.7996066211489D-04  2.7167204713684D-04
142  1.4100000000000D+00 -9.8310571145975D-06  5.8739691525109D-05
143  1.4200000000000D+00 -2.6640082201802D-06 -6.4573126337450D-07
144  1.4300000000000D+00 -3.3426431226702D-05 -2.3546583125950D-06
145  1.4400000000000D+00  2.4163573479319D-06  1.0569267940670D-06
146  1.4500000000000D+00  2.8917540098712D-06  8.0843398958337D-07
147  1.4600000000000D+00  1.3069677480759D-06 -5.0610737154359D-07
148  1.4700000000000D+00  3.1269497294713D-07 -1.2108732681900D-07
149  1.4800000000000D+00  0.0000000000000D+00  0.0000000000000D+00
150  1.4900000000000D+00  0.0000000000000D+00  0.0000000000000D+00
151  1.5000000000000D+00  0.0000000000000D+00  0.0000000000000D+00
152  1.5100000000000D+00  0.0000000000000D+00  0.0000000000000D+00
153  1.5200000000000D+00  0.0000000000000D+00  0.0000000000000D+00
154  1.5300000000000D+00  0.0000000000000D+00  0.0000000000000D+00
155  1.5400000000000D+00  0.0000000000000D+00  0.0000000000000D+00
156  1.5500000000000D+00  0.0000000000000D+00  0.0000000000000D+00
157  1.5600000000000D+00  0.0000000000000D+00  0.0000000000000D+00
158  1.5700000000000D+00  0.0000000000000D+00  0.0000000000000D+00
159  1.5800000000000D+00  0.0000000000000D+00  0.0000000000000D+00
160  1.5900000000000D+00  0.0000000000000D+00  0.0000000000000D+00
161  1.6000000000000D+00  0.0000000000000D+00  0.0000000000000D+00
162  1.6100000000000D+00  0.0000000000000D+00  0.0000000000000D+00
163  1.6200000000000D+00  0.0000000000000D+00  0.0000000000000D+00
164  1.6300000000000D+00  0.0000000000000D+00  0.0000000000000D+00
165  1.6400000000000D+00  0.0000000000000D+00  0.0000000000000D+00
166  1.6500000000000D+00  0.0000000000000D+00  0.0000000000000D+00
167  1.6600000000000D+00  0.0000000000000D+00  0.0000000000000D+00
168  1.6700000000000D+00  0.0000000000000D+00  0.0000000000000D+00
169  1.6800000000000D+00  0.0000000000000D+00  0.0000000000000D+00
170  1.6900000000000D+00  0.0000000000000D+00  0.0000000000000D+00
171  1.7000000000000D+00  0.0000000000000D+00  0.0000000000000D+00
172  1.7100000000000D+00  0.0000000000000D+00  0.0000000000000D+00
173  1.7200000000000D+00  0.0000000000000D+00  0.0000000000000D+00
174  1.7300000000000D+00  0.0000000000000D+00  0.0000000000000D+00
175  1.7400000000000D+00  0.0000000000000D+00  0.0000000000000D+00
176  1.7500000000000D+00  0.0000000000000D+00  0.0000000000000D+00
177  1.7600000000000D+00  0.0000000000000D+00  0.0000000000000D+00
178  1.7700000000000D+00  0.0000000000000D+00  0.0000000000000D+00
179  1.7800000000000D+00  0.0000000000000D+00  0.0000000000000D+00
180  1.7900000000000D+00  0.0000000000000D+00  0.0000000000000D+00
181  1.8000000000000D+00  0.0000000000000D+00  0.0000000000000D+00
182  1.8100000000000D+00  0.0000000000000D+00  0.0000000000000D+00
183  1.8200000000000D+00  0.0000000000000D+00  0.0000000000000D+00
184  1.8300000000000D+00  0.0000000000000D+00  0.0000000000000D+00
185  1.8400000000000D+00  0.0000000000000D+00  0.0000000000000D+00
186  1.8500000000000D+00  0.0000000000000D+00  0.0000000000000D+00
187  1.8600000000000D+00  0.0000000000000D+00  0.0000000000000D+00
188  1.8700000000000D+00  0.0000000000000D+00  0.0000000000000D+00
189  1.8800000000000D+00  0.0000000000000D+00  0.0000000000000D+00
190  1.8900000000000D+00  0.0000000000000D+00  0.0000000000000D+00
191  1.9000000000000D+00  0.0000000000000D+00  0.0000000000000D+00
192  1.9100000000000D+00  0.0000000000000D+00  0.0000000000000D+00
193  1.9200000000000D+00  0.0000000000000D+00  0.0000000000000D+00
194  1.9300000000000D+00  0.0000000000000D+00  0.0000000000000D+00
195  1.9400000000000D+00  0.0000000000000D+00  0.0000000000000D+00
196  1.9500000000000D+00  0.0000000000000D+00  0.0000000000000D+00
197  1.9600000000000D+00  0.0000000000000D+00  0.0000000000000D+00
198  1.9700000000000D+00  0.0000000000000D+00  0.0000000000000D+00
199  1.9800000000000D+00  0.0000000000000D+00  0.0000000000000D+00
200  1.9900000000000D+00  0.0000000000000D+00  0.0000000000000D+00
201  2.0000000000000D+00  0.0000000000000D+00  0.0000000000000D+00
202  2.0100000000000D+00  0.0000000000000D+00  0.0000000000000D+00
203  2.0200000000000D+00  0.0000000000000D+00  0.0000000000000D+00
204  2.0300000000000D+00  0.0000000000000D+00  0.0000000000000D+00
205  2.0400000000000D+00  0.0000000000000D+00  0.0000000000000D+00
206  2.0500000000000D+00  0.0000000000000D+00  0.0000000000000D+00
207  2.0600000000000D+00  0.0000000000000D+00  0.0000000000000D+00
208  2.0700000000000D+00  0.0000000000000D+00  0.0000000000000D+00
209  2.0800000000000D+00  0.0000000000000D+00  0.0000000000000D+00
210  2.0900000000000D+00  0.0000000000000D+00  0.0000000000000D+00
211  2.1000000000000D+00  0.0000000000000D+00  0.0000000000000D+00
212  2.1100000000000D+00  0.0000000000000D+00  0.0000000000000D+00
213  2.1200000000000D+00  0.0000000000000D+00  0.0000000000000D+00
214  2.1300000000000D+00  0.0000000000000D+00  0.0000000000000D+00
215  2.1400000000000D+00  0.0000000000000D+00  0.0000000000000D+00
216  2.1500000000000D+00  0.0000000000000D+00  0.0000000000000D+00
217  2.1600000000000D+00  0.0000000000000D+00  0.0000000000000D+00
218  2.1700000000000D+00  0.0000000000000D+00  0.0000000000000D+00
219  2.1800000000000D+00  0.0000000000000D+00  0.0000000000000D+00
220  2.1900000000000D+00  0.0000000000000D+00  0.0000000000000D+00
221  2.2000000000000D+00  0.0000000000000D+00  0.0000000000000D+00
222  2.2100000000000D+00  0.0000000000000D+00  0.0000000000000D+00
223  2.2200000000000D+00  0.0000000000000D+00  0.0000000000000D+00
224  2.2300000000000D+00  0.0000000000000D+00  0.0000000000000D+00
225  2.2400000000000D+00  0.0000000000000D+00  0.0000000000000D+00
226  2.2500000000000D+00  0.0000000000000D+00  0.0000000000000D+00
227  2.2600000000000D+00  0.0000000000000D+00  0.0000000000000D+00
228  2.2700000000000D+00  0.0000000000000D+00  0.0000000000000D+00
229  2.2800000000000D+00  0.0000000000000D+00  0.0000000000000D+00
230  2.2900000000000D+00  0.0000000000000D+00  0.0000000000000D+00
231  2.3000000000000D+00  0.0000000000000D+00  0.0000000000000D+00
232  2.3100000000000D+00  0.0000000000000D+00  0.0000000000000D+00
233  2.3200000000000D+00  0.0000000000000D+00  0.0000000000000D+00
234  2.3300000000000D+00  0.0000000000000D+00  0.0000000000000D+00
235  2.3400000000000D+00  0.0000000000000D+00  0.0000000000000D+00
236  2.3500000000000D+00  0.0000000000000D+00  0.0000000000000D+00
237  2.3600000000000D+00  0.0000000000000D+00  0.0000000000000D+00
238  2.3700000000000D+00  0.0000000000000D+00  0.0000000000000D+00
239  2.3800000000000D+00  0.0000000000000D+00  0.0000000000000D+00
240  2.3900000000000D+00  0.0000000000000D+00  0.0000000000000D+00
241  2.4000000000000D+00  0.0000000000000D+00  0.0000000000000D+00
242  2.4100000000000D+00  0.0000000000000D+00  0.0000000000000D+00
243  2.4200000000000D+00  0.0000000000000D+00  0.0000000000000D+00
244  2.4300000000000D+00  0.0000000000000D+00  0.0000000000000D+00
245  2.4400000000000D+00  0.0000000000000D+00  0.0000000000000D+00
246  2.4500000000000D+00  0.0000000000000D+00  0.0000000000000D+00
247  2.4600000000000D+00  0.0000000000000D+00  0.0000000000000D+00
248  2.4700000000000D+00  0.0000000000000D+00  0.0000000000000D+00
249  2.4800000000000D+00  0.0000000000000D+00  0.0000000000000D+00
250  2.4900000000000D+00  0.0000000000000D+00  0.0000000000000D+00
251  2.5000000000000D+00  0.0000000000000D+00  0.0000000000000D+00
252  2.5100000000000D+00  0.0000000000000D+00  0.0000000000000D+00
253  2.5200000000000D+00  0.0000000000000D+00  0.0000000000000D+00
254  2.5300000000000D+00  0.0000000000000D+00  0.0000000000000D+00
255  2.5400000000000D+00  0.0000000000000D+00  0.0000000000000D+00
256  2.5500000000000D+00  0.0000000000000D+00  0.0000000000000D+00
257  2.5600000000000D+00  0.0000000000000D+00  0.0000000000000D+00
258  2.5700000000000D+00  0.0000000000000D+00  0.0000000000000D+00
259  2.5800000000000D+00  0.0000000000000D+00  0.0000000000000D+00
260  2.5900000000000D+00  0.0000000000000D+00  0.0000000000000D+00
261  2.6000000000000D+00  0.0000000000000D+00  0.0000000000000D+00
262  2.6100000000000D+00  0.0000000000000D+00  0.0000000000000D+00
263  2.6200000000000D+00  0.0000000000000D+00  0.0000000000000D+00
264  2.6300000000000D+00  0.0000000000000D+00  0.0000000000000D+00
265  2.6400000000000D+00  0.0000000000000D+00  0.0000000000000D+00
266  2.6500000000000D+00  0.0000000000000D+00  0.0000000000000D+00
267  2.6600000000000D+00  0.0000000000000D+00  0.0000000000000D+00
268  2.6700000000000D+00  0.0000000000000D+00  0.0000000000000D+00
269  2.6800000000000D+00  0.0000000000000D+00  0.0000000000000D+00
270  2.6900000000000D+00  0.0000000000000D+00  0.0000000000000D+00
271  2.7000000000000D+00  0.0000000000000D+00  0.0000000000000D+00
272  2.7100000000000D+00  0.0000000000000D+00  0.0000000000000D+00
273  2.7200000000000D+00  0.0000000000000D+00  0.0000000000000D+00
274  2.7300000000000D+00  0.0000000000000D+00  0.0000000000000D+00
275  2.7400000000000D+00  0.0000000000000D+00  0.0000000000000D+00
276  2.7500000000000D+00  0.0000000000000D+00  0.0000000000000D+00
277  2.7600000000000D+00  0.0000000000000D+00  0.0000000000000D+00
278  2.7700000000000D+00  0.0000000000000D+00  0.0000000000000D+00
279  2.7800000000000D+00  0.0000000000000D+00  0.0000000000000D+00
280  2.7900000000000D+00  0.0000000000000D+00  0.0000000000000D+00
281  2.8000000000000D+00  0.0000000000000D+00  0.0000000000000D+00
282  2.8100000000000D+00  0.0000000000000D+00  0.0000000000000D+00
283  2.8200000000000D+00  0.0000000000000D+00  0.0000000000000D+00
284  2.8300000000000D+00  0.0000000000000D+00  0.0000000000000D+00
285  2.8400000000000D+00  0.0000000000000D+00  0.0000000000000D+00
286  2.8500000000000D+00  0.0000000000000D+00  0.0000000000000D+00
287  2.8600000000000D+00  0.0000000000000D+00  0.0000000000000D+00
288  2.8700000000000D+00  0.0000000000000D+00  0.0000000000000D+00
289  2.8800000000000D+00  0.0000000000000D+00  0.0000000000000D+00
290  2.8900000000000D+00  0.0000000000000D+00  0.0000000000000D+00
291  2.9000000000000D+00  0.0000000000000D+00  0.0000000000000D+00
292  2.9100000000000D+00  0.0000000000000D+00  0.0000000000000D+00
293  2.9200000000000D+00  0.0000000000000D+00  0.0000000000000D+00
294  2.9300000000000D+00  0.0000000000000D+00  0.0000000000000D+00
295  2.9400000000000D+00  0.0000000000000D+00  0.0000000000000D+00
296  2.9500000000000D+00  0.0000000000000D+00  0.0000000000000D+00
297  2.9600000000000D+00  0.0000000000000D+00  0.0000000000000D+00
298  2.9700000000000D+00  0.0000000000000D+00  0.0000000000000D+00
299  2.9800000000000D+00  0.0000000000000D+00  0.0000000000000D+00
300  2.9900000000000D+00  0.0000000000000D+00  0.0000000000000D+00
301  3.0000000000000D+00  0.0000000000000D+00  0.0000000000000D+00
302  3.0100000000000D+00  0.0000000000000D+00  0.0000000000000D+00
303  3.0200000000000D+00  0.0000000000000D+00  0.0000000000000D+00
304  3.0300000000000D+00  0.0000000000000D+00  0.0000000000000D+00
305  3.0400000000000D+00  0.0000000000000D+00  0.0000000000000D+00
306  3.0500000000000D+00  0.0000000000000D+00  0.0000000000000D+00
307  3.0600000000000D+00  0.0000000000000D+00  0.0000000000000D+00
308  3.0700000000000D+00  0.0000000000000D+00  0.0000000000000D+00
309  3.0800000000000D+00  0.0000000000000D+00  0.0000000000000D+00
310  3.0900000000000D+00  0.0000000000000D+00  0.0000000000000D+00
311  3.1000000000000D+00  0.0000000000000D+00  0.0000000000000D+00
312  3.1100000000000D+00  0.0000000000000D+00  0.0000000000000D+00
313  3.1200000000000D+00  0.0000000000000D+00  0.0000000000000D+00
314  3.1300000000000D+00  0.0000000000000D+00  0.0000000000000D+00
315  3.1400000000000D+00  0.0000000000000D+00  0.0000000000000D+00
316  3.1500000000000D+00  0.0000000000000D+00  0.0000000000000D+00
317  3.1600000000000D+00  0.0000000000000D+00  0.0000000000000D+00
318  3.1700000000000D+00  0.0000000000000D+00  0.0000000000000D+00
319  3.1800000000000D+00  0.0000000000000D+00  0.0000000000000D+00
320  3.1900000000000D+00  0.0000000000000D+00  0.0000000000000D+00
321  3.2000000000000D+00  0.0000000000000D+00  0.0000000000000D+00
322  3.2100000000000D+00  0.0000000000000D+00  0.0000000000000D+00
323  3.2200000000000D+00  0.0000000000000D+00  0.0000000000000D+00
324  3.2300000000000D+00  0.0000000000000D+00  0.0000000000000D+00
325  3.2400000000000D+00  0.0000000000000D+00  0.0000000000000D+00
326  3.2500000000000D+00  0.0000000000000D+00  0.0000000000000D+00
327  3.2600000000000D+00  0.0000000000000D+00  0.0000000000000D+00
328  3.2700000000000D+00  0.0000000000000D+00  0.0000000000000D+00
329  3.2800000000000D+00  0.0000000000000D+00  0.0000000000000D+00
330  3.2900000000000D+00  0.0000000000000D+00  0.0000000000000D+00
331  3.3000000000000D+00  0.0000000000000D+00  0.0000000000000D+00
332  3.3100000000000D+00  0.0000000000000D+00  0.0000000000000D+00
333  3.3200000000000D+00  0.0000000000000D+00  0.0000000000000D+00
334  3.3300000000000D+00  0.0000000000000D+00  0.0000000000000D+00
335  3.3400000000000D+00  0.0000000000000D+00  0.0000000000000D+00
336  3.3500000000000D+00  0.0000000000000D+00  0.0000000000000D+00
337  3.3600000000000D+00  0.0000000000000D+00  0.0000000000000D+00
338  3.3700000000000D+00  0.0000000000000D+00  0.0000000000000D+00
339  3.3800000000000D+00  0.0000000000000D+00  0.0000000000000D+00
340  3.3900000000000D+00  0.0000000000000D+00  0.0000000000000D+00
341  3.4000000000000D+00  0.0000000000000D+00  0.0000000000000D+00
342  3.4100000000000D+00  0.0000000000000D+00  0.0000000000000D+00
343  3.4200000000000D+00  0.0000000000000D+00  0.0000000000000D+00
344  3.4300000000000D+00  0.0000000000000D+00  0.0000000000000D+00
345  3.4400000000000D+00  0.0000000000000D+00  0.0000000000000D+00
346  3.4500000000000D+00  0.0000000000000D+00  0.0000000000000D+00
347  3.4600000000000D+00  0.0000000000000D+00  0.0000000000000D+00
348  3.4700000000000D+00  0.0000000000000D+00  0.0000000000000D+00
349  3.4800000000000D+00  0.0000000000000D+00  0.0000000000000D+00
350  3.4900000000000D+00  0.0000000000000D+00  0.0000000000000D+00
351  3.5000000000000D+00  0.0000000000000D+00  0.0000000000000D+00
352  3.5100000000000D+00  0.0000000000000D+00  0.0000000000000D+00
353  3.5200000000000D+00  0.0000000000000D+00  0.0000000000000D+00
354  3.5300000000000D+00  0.0000000000000D+00  0.0000000000000D+00
355  3.5400000000000D+00  0.0000000000000D+00  0.0000000000000D+00
356  3.5500000000000D+00  0.0000000000000D+00  0.0000000000000D+00
357  3.5600000000000D+00  0.0000000000000D+00  0.0000000000000D+00
358  3.5700000000000D+00  0.0000000000000D+00  0.0000000000000D+00
359  3.5800000000000D+00  0.0000000000000D+00  0.0000000000000D+00
360  3.5900000000000D+00  0.0000000000000D+00  0.0000000000000D+00
361  3.6000000000000D+00  0.0000000000000D+00  0.0000000000000D+00
362  3.6100000000000D+00  0.0000000000000D+00  0.0000000000000D+00
363  3.6200000000000D+00  0.0000000000000D+00  0.0000000000000D+00
364  3.6300000000000D+00  0.0000000000000D+00  0.0000000000000D+00
365  3.6400000000000D+00  0.0000000000000D+00  0.0000000000000D+00
366  3.6500000000000D+00  0.0000000000000D+00  0.0000000000000D+00
367  3.6600000000000D+00  0.0000000000000D+00  0.0000000000000D+00
368  3.6700000000000D+00  0.0000000000000D+00  0.0000000000000D+00
369  3.6800000000000D+00  0.0000000000000D+00  0.0000000000000D+00
370  3.6900000000000D+00  0.0000000000000D+00  0.0000000000000D+00
371  3.7000000000000D+00  0.0000000000000D+00  0.0000000000000D+00
372  3.7100000000000D+00  0.0000000000000D+00  0.0000000000000D+00
373  3.7200000000000D+00  0.0000000000000D+00  0.0000000000000D+00
374  3.7300000000000D+00  0.0000000000000D+00  0.0000000000000D+00
375  3.7400000000000D+00  0.0000000000000D+00  0.0000000000000D+00
376  3.7500000000000D+00  0.0000000000000D+00  0.0000000000000D+00
377  3.7600000000000D+00  0.0000000000000D+00  0.0000000000000D+00
378  3.7700000000000D+00  0.0000000000000D+00  0.0000000000000D+00
379  3.7800000000000D+00  0.0000000000000D+00  0.0000000000000D+00
380  3.7900000000000D+00  0.0000000000000D+00  0.0000000000000D+00
381  3.8000000000000D+00  0.0000000000000D+00  0.0000000000000D+00
382  3.8100000000000D+00  0.0000000000000D+00  0.0000000000000D+00
383  3.8200000000000D+00  0.0000000000000D+00  0.0000000000000D+00
384  3.8300000000000D+00  0.0000000000000D+00  0.0000000000000D+00
385  3.8400000000000D+00  0.0000000000000D+00  0.0000000000000D+00
386  3.8500000000000D+00  0.0000000000000D+00  0.0000000000000D+00
387  3.8600000000000D+00  0.0000000000000D+00  0.0000000000000D+00
388  3.8700000000000D+00  0.0000000000000D+00  0.0000000000000D+00
389  3.8800000000000D+00  0.0000000000000D+00  0.0000000000000D+00
390  3.8900000000000D+00  0.0000000000000D+00  0.0000000000000D+00
391  3.9000000000000D+00  0.0000000000000D+00  0.0000000000000D+00
392  3.9100000000000D+00  0.0000000000000D+00  0.0000000000000D+00
393  3.9200000000000D+00  0.0000000000000D+00  0.0000000000000D+00
394  3.9300000000000D+00  0.0000000000000D+00  0.0000000000000D+00
395  3.9400000000000D+00  0.0000000000000D+00  0.0000000000000D+00
396  3.9500000000000D+00  0.0000000000000D+00  0.0000000000000D+00
397  3.9600000000000D+00  0.0000000000000D+00  0.0000000000000D+00
398  3.9700000000000D+00  0.0000000000000D+00  0.0000000000000D+00
399  3.9800000000000D+00  0.0000000000000D+00  0.0000000000000D+00
400  3.9900000000000D+00  0.0000000000000D+00  0.0000000000000D+00
401  4.0000000000000D+00  0.0000000000000D+00  0.0000000000000D+00
402  4.0100000000000D+00  0.0000000000000D+00  0.0000000000000D+00
403  4.0200000000000D+00  0.0000000000000D+00  0.0000000000000D+00
404  4.0300000000000D+00  0.0000000000000D+00  0.0000000000000D+00
405  4.0400000000000D+00  0.0000000000000D+00  0.0000000000000D+00
406  4.0500000000000D+00  0.0000000000000D+00  0.0000000000000D+00
407  4.0600000000000D+00  0.0000000000000D+00  0.0000000000000D+00
408  4.0700000000000D+00  0.0000000000000D+00  0.0000000000000D+00
409  4.0800000000000D+00  0.0000000000000D+00  0.0000000000000D+00
410  4.0900000000000D+00  0.0000000000000D+00  0.0000000000000D+00
411  4.1000000000000D+00  0.0000000000000D+00  0.0000000000000D+00
412  4.1100000000000D+00  0.0000000000000D+00  0.0000000000000D+00
413  4.1200000000000D+00  0.0000000000000D+00  0.0000000000000D+00
414  4.1300000000000D+00  0.0000000000000D+00  0.0000000000000D+00
415  4.1400000000000D+00  0.0000000000000D+00  0.0000000000000D+00
416  4.1500000000000D+00  0.0000000000000D+00  0.0000000000000D+00
417  4.1600000000000D+00  0.0000000000000D+00  0.0000000000000D+00
418  4.1700000000000D+00  0.0000000000000D+00  0.0000000000000D+00
419  4.1800000000000D+00  0.0000000000000D+00  0.0000000000000D+00
420  4.1900000000000D+00  0.0000000000000D+00  0.0000000000000D+00
421  4.2000000000000D+00  0.0000000000000D+00  0.0000000000000D+00
422  4.2100000000000D+00  0.0000000000000D+00  0.0000000000000D+00
423  4.2200000000000D+00  0.0000000000000D+00  0.0000000000000D+00
424  4.2300000000000D+00  0.0000000000000D+00  0.0000000000000D+00
425  4.2400000000000D+00  0.0000000000000D+00  0.0000000000000D+00
426  4.2500000000000D+00  0.0000000000000D+00  0.0000000000000D+00
427  4.2600000000000D+00  0.0000000000000D+00  0.0000000000000D+00
428  4.2700000000000D+00  0.0000000000000D+00  0.0000000000000D+00
429  4.2800000000000D+00  0.0000000000000D+00  0.0000000000000D+00
430  4.2900000000000D+00  0.0000000000000D+00  0.0000000000000D+00
431  4.3000000000000D+00  0.0000000000000D+00  0.0000000000000D+00
432  4.3100000000000D+00  0.0000000000000D+00  0.0000000000000D+00
433  4.3200000000000D+00  0.0000000000000D+00  0.0000000000000D+00
434  4.3300000000000D+00  0.0000000000000D+00  0.0000000000000D+00
435  4.3400000000000D+00  0.0000000000000D+00  0.0000000000000D+00
436  4.3500000000000D+00  0.0000000000000D+00  0.0000000000000D+00
437  4.3600000000000D+00  0.0000000000000D+00  0.0000000000000D+00
438  4.3700000000000D+00  0.0000000000000D+00  0.0000000000000D+00
439  4.3800000000000D+00  0.0000000000000D+00  0.0000000000000D+00
440  4.3900000000000D+00  0.0000000000000D+00  0.0000000000000D+00
441  4.4000000000000D+00  0.0000000000000D+00  0.0000000000000D+00
442  4.4100000000000D+00  0.0000000000000D+00  0.0000000000000D+00
443  4.4200000000000D+00  0.0000000000000D+00  0.0000000000000D+00