<?xml version="1.0" encoding="UTF-8" ?>
<psml version="1.1" energy_unit="hartree" length_unit="bohr"
 uuid="e8c4be90-521c-11e8-7c53-49c8efd4f3bd"
 xmlns="http://esl.cecam.org/PSML/ns/1.1">
<provenance creator="ONCVPSP-3.3.0+psml-3.3.0-73 (fully-relativistic)"
 date="2018-05-07">
<annotation action="semilocal-pseudopotential-generation"
 action-cont="projectors-generation" />
<input-file name="oncvpsp-input">
<![CDATA[# atsym z nc nv iexc psfile
Pb 82 10 5 4 both
# n l f
1 0 2.0
2 0 2.0
2 1 6.0
3 0 2.0
3 1 6.0
3 2 10.0
4 0 2.0
4 1 6.0
4 2 10.0
4 3 14.0
5 0 2.0
5 1 6.0
5 2 10.0
6 0 2.0
6 1 2.0
# lmax
2
# l rc ep ncon nbas qcut
0 1.4 0.0 4 8 9.0
1 1.5 0.0 4 8 8.4
2 1.4 0.0 4 8 9.0
# lloc lpopt rc5 dvloc0
4 5 1.3 0.0
# l nproj debl
0 2 1.8
1 2 2.5
2 2 1.0
# icmod fcfact rcfact
3 6.0 1.34
# epsh1 epsh2 depsh
-15.0 12.0 0.02
# rlmax drl
6.0 0.01
 0
]]>
</input-file>
</provenance>
<pseudo-atom-spec atomic-label="Pb" atomic-number="82" z-pseudo="22"
 flavor="Hamann&apos;s oncvpsp" relativity="dirac" spin-dft="no"
 core-corrections="yes">
<annotation pseudo-energy="-195.618413490" />
<exchange-correlation>
<annotation oncvpsp-xc-code="4" oncvpsp-xc-type="GGA -- Perdew-Burke-Ernzerhof" />
<libxc-info number-of-functionals="2">
<functional name="Perdew, Burke &amp; Ernzerhof (GGA)" type="exchange" id="101" />
<functional name="Perdew, Burke &amp; Ernzerhof (GGA)" type="correlation"
 id="130" />
</libxc-info>
</exchange-correlation>
<valence-configuration total-valence-charge="22">
<shell n="5" l="s" occupation="2" />
<shell n="5" l="p" occupation="6" />
<shell n="5" l="d" occupation="10" />
<shell n="6" l="s" occupation="2" />
<shell n="6" l="p" occupation="2" />
</valence-configuration>
</pseudo-atom-spec>
<grid npts="457">
<annotation type="sampled from oncvpsp log grid"
 recipe="r(i:1..N) = r1*exp(a*(i-1)) + r=0; resampled"
 recipe-cont="r1: scale; a: step" scale="0.609756097561E-05"
 step="0.119285708653E-01" delta="0.500000000000E-02" rmax="44.0711828530" />
<grid-data>
  0.000000000000E+00  5.032510521928E-03  1.005204483031E-02  1.507967014897E-02
  2.031910874069E-02  2.548791981066E-02  3.084768604356E-02  3.602211884327E-02
  4.107285502462E-02  4.627644805099E-02  5.152104103689E-02  5.667985490806E-02
  6.235522201693E-02  6.778543968363E-02  7.281477174075E-02  7.821725444879E-02
  8.402057367273E-02  8.918425832686E-02  9.466528953126E-02  1.004831705747E-01
  1.066586033671E-01  1.118711087980E-01  1.173383542312E-01  1.230727890481E-01
  1.290874710433E-01  1.353960961578E-01  1.420130296658E-01  1.471870937611E-01
  1.525496683003E-01  1.581076214217E-01  1.638680714953E-01  1.698383962400E-01
  1.760262421726E-01  1.824395344007E-01  1.890864867735E-01  1.959756124011E-01
  2.031157345580E-01  2.105159979834E-01  2.155986962387E-01  2.208041111607E-01
  2.261352056205E-01  2.315950140250E-01  2.371866440437E-01  2.429132783775E-01
  2.487781765706E-01  2.547846768657E-01  2.609361981040E-01  2.672362416710E-01
  2.736883934899E-01  2.802963260623E-01  2.870638005588E-01  2.939946689595E-01
  3.010928762468E-01  3.083624626509E-01  3.158075659492E-01  3.234324238214E-01
  3.312413762622E-01  3.392388680507E-01  3.474294512809E-01  3.558177879526E-01
  3.644086526249E-01  3.732069351339E-01  3.822176433758E-01  3.914459061574E-01
  4.008969761157E-01  4.105762327070E-01  4.204891852695E-01  4.255350554928E-01
  4.306414761587E-01  4.358091738726E-01  4.410388839590E-01  4.463313505666E-01
  4.516873267734E-01  4.571075746946E-01  4.625928655910E-01  4.681439799781E-01
  4.737617077378E-01  4.794468482307E-01  4.852002104094E-01  4.910226129343E-01
  4.969148842895E-01  5.028778629010E-01  5.089123972558E-01  5.150193460229E-01
  5.211995781752E-01  5.274539731133E-01  5.337834207906E-01  5.401888218401E-01
  5.466710877022E-01  5.532311407546E-01  5.598699144437E-01  5.665883534170E-01
  5.733874136580E-01  5.802680626219E-01  5.872312793734E-01  5.942780547259E-01
  6.014093913826E-01  6.086263040792E-01  6.159298197281E-01  6.233209775648E-01
  6.308008292956E-01  6.383704392472E-01  6.460308845181E-01  6.537832551324E-01
  6.616286541939E-01  6.695681980443E-01  6.776030164208E-01  6.857342526179E-01
  6.939630636493E-01  7.022906204131E-01  7.107181078580E-01  7.192467251523E-01
  7.278776858541E-01  7.366122180844E-01  7.454515647014E-01  7.543969834778E-01
  7.634497472795E-01  7.726111442469E-01  7.818824779779E-01  7.912650677136E-01
  8.007602485262E-01  8.103693715085E-01  8.200938039666E-01  8.299349296142E-01
  8.398941487695E-01  8.499728785548E-01  8.601725530974E-01  8.704946237346E-01
  8.809405592194E-01  8.915118459301E-01  9.022099880812E-01  9.130365079382E-01
  9.239929460335E-01  9.350808613859E-01  9.463018317225E-01  9.576574537032E-01
  9.691493431476E-01  9.807791352654E-01  9.925484848885E-01  1.004459066707E+00
  1.016512575508E+00  1.028710726414E+00  1.041055255131E+00  1.053547918192E+00
  1.066190493211E+00  1.078984779129E+00  1.091932596479E+00  1.105035787636E+00
  1.118296217088E+00  1.131715771693E+00  1.145296360953E+00  1.159039917285E+00
  1.172948396292E+00  1.187023777048E+00  1.201268062372E+00  1.215683279121E+00
  1.230271478470E+00  1.245034736212E+00  1.259975153047E+00  1.275094854883E+00
  1.290395993142E+00  1.305880745059E+00  1.321551314000E+00  1.337409929768E+00
  1.353458848925E+00  1.369700355112E+00  1.386136759374E+00  1.402770400486E+00
  1.419603645292E+00  1.436638889036E+00  1.453878555704E+00  1.471325098372E+00
  1.488980999553E+00  1.506848771548E+00  1.524930956806E+00  1.543230128288E+00
  1.561748889827E+00  1.580489876505E+00  1.599455755023E+00  1.618649224084E+00
  1.638073014773E+00  1.657729890950E+00  1.677622649641E+00  1.697754121437E+00
  1.718127170894E+00  1.738744696945E+00  1.759609633308E+00  1.780724948908E+00
  1.802093648295E+00  1.823718772074E+00  1.845603397339E+00  1.867750638107E+00
  1.890163645765E+00  1.912845609514E+00  1.935799756828E+00  1.959029353910E+00
  1.982537706157E+00  2.006328158631E+00  2.030404096534E+00  2.054768945693E+00
  2.079426173041E+00  2.104379287117E+00  2.129631838563E+00  2.155187420626E+00
  2.181049669673E+00  2.207222265709E+00  2.233708932898E+00  2.260513440092E+00
  2.287639601374E+00  2.315091276590E+00  2.342872371909E+00  2.370986840372E+00
  2.399438682457E+00  2.428231946646E+00  2.457370730006E+00  2.486859178766E+00
  2.516701488911E+00  2.546901906778E+00  2.577464729659E+00  2.608394306415E+00
  2.639695038092E+00  2.671371378549E+00  2.703427835092E+00  2.735868969113E+00
  2.768699396742E+00  2.801923789503E+00  2.835546874977E+00  2.869573437477E+00
  2.904008318727E+00  2.938856418551E+00  2.974122695574E+00  3.009812167921E+00
  3.045929913936E+00  3.082481072903E+00  3.119470845778E+00  3.156904495927E+00
  3.194787349879E+00  3.233124798077E+00  3.271922295654E+00  3.311185363202E+00
  3.350919587560E+00  3.391130622611E+00  3.431824190082E+00  3.473006080363E+00
  3.514682153328E+00  3.556858339168E+00  3.599540639238E+00  3.642735126908E+00
  3.686447948431E+00  3.730685323813E+00  3.775453547698E+00  3.820758990271E+00
  3.866608098154E+00  3.913007395332E+00  3.959963484076E+00  4.007483045885E+00
  4.055572842435E+00  4.104239716545E+00  4.153490593143E+00  4.203332480261E+00
  4.253772470024E+00  4.304817739664E+00  4.356475552540E+00  4.408753259171E+00
  4.461658298281E+00  4.515198197860E+00  4.569380576234E+00  4.624213143149E+00
  4.679703700867E+00  4.735860145277E+00  4.792690467021E+00  4.850202752625E+00
  4.908405185656E+00  4.967306047884E+00  5.026913720459E+00  5.087236685104E+00
  5.148283525326E+00  5.210062927630E+00  5.272583682761E+00  5.335854686954E+00
  5.399884943198E+00  5.464683562516E+00  5.530259765266E+00  5.596622882449E+00
  5.663782357039E+00  5.731747745323E+00  5.800528718267E+00  5.870135062886E+00
  5.940576683641E+00  6.011863603845E+00  6.084005967091E+00  6.157014038696E+00
  6.230898207160E+00  6.305668985646E+00  6.381337013474E+00  6.457913057636E+00
  6.535408014327E+00  6.613832910499E+00  6.693198905425E+00  6.773517292290E+00
  6.854799499798E+00  6.937057093795E+00  7.020301778921E+00  7.104545400268E+00
  7.189799945071E+00  7.276077544412E+00  7.363390474945E+00  7.451751160644E+00
  7.541172174572E+00  7.631666240667E+00  7.723246235555E+00  7.815925190382E+00
  7.909716292666E+00  8.004632888178E+00  8.100688482836E+00  8.197896744630E+00
  8.296271505566E+00  8.395826763633E+00  8.496576684796E+00  8.598535605014E+00
  8.701718032274E+00  8.806138648661E+00  8.911812312445E+00  9.018754060195E+00
  9.126979108917E+00  9.236502858224E+00  9.347340892523E+00  9.459508983233E+00
  9.573023091032E+00  9.687899368124E+00  9.804154160542E+00  9.921804010468E+00
  1.004086565859E+01  1.016135604650E+01  1.028329231905E+01  1.040669182688E+01
  1.053157212881E+01  1.065795099435E+01  1.078584640628E+01  1.091527656316E+01
  1.104625988192E+01  1.117881500050E+01  1.131296078051E+01  1.144871630987E+01
  1.158610090559E+01  1.172513411646E+01  1.186583572586E+01  1.200822575457E+01
  1.215232446362E+01  1.229815235718E+01  1.244573018547E+01  1.259507894770E+01
  1.274621989507E+01  1.289917453381E+01  1.305396462821E+01  1.321061220375E+01
  1.336913955020E+01  1.352956922480E+01  1.369192405550E+01  1.385622714416E+01
  1.402250186989E+01  1.419077189233E+01  1.436106115504E+01  1.453339388890E+01
  1.470779461557E+01  1.488428815096E+01  1.506289960877E+01  1.524365440407E+01
  1.542657825692E+01  1.561169719600E+01  1.579903756236E+01  1.598862601310E+01
  1.618048952526E+01  1.637465539956E+01  1.657115126436E+01  1.677000507953E+01
  1.697124514049E+01  1.717490008217E+01  1.738099888316E+01  1.758957086976E+01
  1.780064572019E+01  1.801425346883E+01  1.823042451046E+01  1.844918960459E+01
  1.867057987984E+01  1.889462683840E+01  1.912136236046E+01  1.935081870879E+01
  1.958302853329E+01  1.981802487569E+01  2.005584117420E+01  2.029651126829E+01
  2.054006940351E+01  2.078655023635E+01  2.103598883919E+01  2.128842070526E+01
  2.154388175372E+01  2.180240833477E+01  2.206403723478E+01  2.232880568160E+01
  2.259675134978E+01  2.286791236598E+01  2.314232731437E+01  2.342003524214E+01
  2.370107566505E+01  2.398548857303E+01  2.427331443590E+01  2.456459420913E+01
  2.485936933964E+01  2.515768177172E+01  2.545957395298E+01  2.576508884042E+01
  2.607426990650E+01  2.638716114538E+01  2.670380707912E+01  2.702425276407E+01
  2.734854379724E+01  2.767672632281E+01  2.800884703868E+01  2.834495320315E+01
  2.868509264158E+01  2.902931375328E+01  2.937766551832E+01  2.973019750454E+01
  3.008695987460E+01  3.044800339309E+01  3.081337943381E+01  3.118313998701E+01
  3.155733766686E+01  3.193602571886E+01  3.231925802749E+01  3.270708912382E+01
  3.309957419330E+01  3.349676908362E+01  3.389873031263E+01  3.430551507638E+01
  3.471718125729E+01  3.513378743238E+01  3.555539288157E+01  3.598205759615E+01
  3.641384228730E+01  3.685080839475E+01  3.729301809549E+01  3.774053431263E+01
  3.819342072439E+01  3.865174177308E+01  3.911556267436E+01  3.958494942645E+01
  4.005996881956E+01  4.054068844540E+01  4.102717670674E+01  4.151950282723E+01
  4.201773686115E+01  4.252194970349E+01  4.303221309993E+01  4.354859965713E+01
  4.407118285301E+01
</grid-data>
</grid>
<valence-charge total-charge="22" is-unscreening-charge="yes"
 rescaled-to-z-pseudo="no">
<radfunc>
<data npts="457">
  3.868073073924E+00  3.871058247316E+00  3.879982204759E+00  3.894871379835E+00
  3.916720873110E+00  3.944603389937E+00  3.980144776833E+00  4.020850224155E+00
  4.066628590059E+00  4.120025879703E+00  4.180229627700E+00  4.245685695765E+00
  4.324818575185E+00  4.407493750410E+00  4.490112965923E+00  4.585313347161E+00
  4.694985432961E+00  4.798986912237E+00  4.915953517620E+00  5.047468546105E+00
  5.195298919320E+00  5.326626057061E+00  5.470759828625E+00  5.628906179391E+00
  5.802374444219E+00  5.992583662624E+00  6.201068568894E+00  6.370417069384E+00
  6.551719217692E+00  6.745760320227E+00  6.953366727102E+00  7.175405914997E+00
  7.412786066375E+00  7.666455022540E+00  7.937398465933E+00  8.226637161963E+00
  8.535223062153E+00  8.864234038457E+00  9.095463098526E+00  9.336585210498E+00
  9.587928969250E+00  9.849821988744E+00  1.012258902720E+01  1.040654983953E+01
  1.070201672928E+01  1.100929177052E+01  1.132866366852E+01  1.166040422677E+01
  1.200476438624E+01  1.236196980242E+01  1.273221592496E+01  1.311566254477E+01
  1.351242777462E+01  1.392258143070E+01  1.434613778579E+01  1.478304766847E+01
  1.523318988904E+01  1.569636198008E+01  1.617227024948E+01  1.666051915639E+01
  1.716060003521E+01  1.767187921173E+01  1.819358557729E+01  1.872479771302E+01
  1.926443068643E+01  1.981122267803E+01  2.036372163491E+01  2.064160221353E+01
  2.092027219336E+01  2.119949083198E+01  2.147900316188E+01  2.175853965480E+01
  2.203781590986E+01  2.231653236919E+01  2.259437406508E+01  2.287101040285E+01
  2.314609498392E+01  2.341926547381E+01  2.369014352001E+01  2.395833472490E+01
  2.422342867898E+01  2.448499906024E+01  2.474260380502E+01  2.499578535657E+01
  2.524407099708E+01  2.548697326931E+01  2.572399049379E+01  2.595460738774E+01
  2.617829579160E+01  2.639451550894E+01  2.660271526533E+01  2.680233379157E+01
  2.699280103593E+01  2.717353950999E+01  2.734396577178E+01  2.750349204941E+01
  2.765152800738E+01  2.778748265701E+01  2.791076641126E+01  2.802079328302E+01
  2.811698322473E+01  2.819876460550E+01  2.826557682069E+01  2.831687302670E+01
  2.835212299243E+01  2.837081605653E+01  2.837246417766E+01  2.835660506292E+01
  2.832280535749E+01  2.827066387612E+01  2.819981485509E+01  2.810993120125E+01
  2.800072771225E+01  2.787196424064E+01  2.772344877220E+01  2.755504038787E+01
  2.736665207673E+01  2.715825336687E+01  2.692987274044E+01  2.668159979848E+01
  2.641358714197E+01  2.612605193595E+01  2.581927712503E+01  2.549361227039E+01
  2.514947398119E+01  2.478734591592E+01  2.440777833346E+01  2.401138717749E+01
  2.359885268297E+01  2.317091749843E+01  2.272838432381E+01  2.227211306923E+01
  2.180301754635E+01  2.132206171036E+01  2.083025547628E+01  2.032865013967E+01
  1.981833343691E+01  1.930042428532E+01  1.877606724750E+01  1.824642676797E+01
  1.771268123217E+01  1.717601689993E+01  1.663762176551E+01  1.609867939598E+01
  1.556036279788E+01  1.502382835979E+01  1.449020991505E+01  1.396061296486E+01
  1.343610909815E+01  1.291773063977E+01  1.240646555485E+01  1.190325263308E+01
  1.140897697379E+01  1.092446579054E+01  1.045048455266E+01  9.987733481359E+00
  9.536844419264E+00  9.098378094074E+00  8.672821800537E+00  8.260587528147E+00
  7.862010565801E+00  7.477348617999E+00  7.106781469676E+00  6.750411238529E+00
  6.408263254705E+00  6.080287605873E+00  5.766361378503E+00  5.466291617143E+00
  5.179820662706E+00  4.906638818087E+00  4.646400897681E+00  4.398732422808E+00
  4.163232436922E+00  3.939478748046E+00  3.727033075666E+00  3.525449291217E+00
  3.334282827790E+00  3.153092704244E+00  2.981443418646E+00  2.818906535968E+00
  2.665062090312E+00  2.519499781139E+00  2.381819983164E+00  2.251634582118E+00
  2.128567649439E+00  2.012255968834E+00  1.902349427435E+00  1.798511283948E+00
  1.700418325829E+00  1.607760927016E+00  1.520243017276E+00  1.437581973621E+00
  1.359508443696E+00  1.285766110395E+00  1.216111406363E+00  1.150313186388E+00
  1.088152365086E+00  1.029421526630E+00  9.739245127140E-01  9.214759943035E-01
  8.719010322215E-01  8.250346310271E-01  7.807212901685E-01  7.388145558976E-01
  6.991765769843E-01  6.616776668490E-01  6.261958743434E-01  5.926165650512E-01
  5.608320146497E-01  5.307410155786E-01  5.022484979890E-01  4.752651657035E-01
  4.497071477016E-01  4.254956654524E-01  4.025567162454E-01  3.808207725254E-01
  3.602224971080E-01  3.407004740427E-01  3.221969548006E-01  3.046576193851E-01
  2.880313519036E-01  2.722700300865E-01  2.573283282040E-01  2.431635328018E-01
  2.297353706581E-01  2.170058483537E-01  2.049391028437E-01  1.935012624254E-01
  1.826603174647E-01  1.723860003607E-01  1.626496740980E-01  1.534242288634E-01
  1.446839861794E-01  1.364046100378E-01  1.285630245368E-01  1.211373375515E-01
  1.141067699914E-01  1.074515902229E-01  1.011530532596E-01  9.519334434933E-02
  8.955552660740E-02  8.422349237306E-02  7.918191798602E-02  7.441622170295E-02
  6.991252449473E-02  6.565761348521E-02  6.163890781117E-02  5.784442670144E-02
  5.426275958983E-02  5.088303809256E-02  4.769490969599E-02  4.468851301378E-02
  4.185445448608E-02  3.918378640484E-02  3.666798616054E-02  3.429893661553E-02
  3.206890751843E-02  2.997053788251E-02  2.799681925829E-02  2.614107983780E-02
  2.439696933365E-02  2.275844458198E-02  2.121975582353E-02  1.977543361933E-02
  1.842027636507E-02  1.714933836829E-02  1.595791845693E-02  1.484154909033E-02
  1.379598594564E-02  1.281719795517E-02  1.190135777145E-02  1.104483263859E-02
  1.024417565007E-02  9.496117373908E-03  8.797557827751E-03  8.145558787217E-03
  7.537336411844E-03  6.970254173945E-03  6.441816076494E-03  5.949660147013E-03
  5.491552195181E-03  5.065379822678E-03  4.669146674448E-03  4.300966921300E-03
  3.959059964379E-03  3.641745352699E-03  3.347437905496E-03  3.074643031707E-03
  2.821952239426E-03  2.588038828620E-03  2.371653760859E-03  2.171621700185E-03
  1.986837219609E-03  1.816261168025E-03  1.658917192626E-03  1.513888412096E-03
  1.380314236086E-03  1.257387326617E-03  1.144350697184E-03  1.040494945403E-03
  9.451556151417E-04  8.577106840689E-04  7.775781725956E-04  7.042138701606E-04
  6.371091747997E-04  5.757890419076E-04  5.198100380671E-04  4.687584957939E-04
  4.222487650163E-04  3.799215571017E-04  3.414423772394E-04  3.065000410140E-04
  2.748052710455E-04  2.460893696368E-04  2.201029634609E-04  1.966148164297E-04
  1.754107070227E-04  1.562923665052E-04  1.390764746369E-04  1.235937096523E-04
  1.096878494873E-04  9.721492142001E-05  8.604239749270E-05  7.604843327350E-05
  6.712114770448E-05  5.915794196021E-05  5.206485540695E-05  4.575595690500E-05
  4.015276983458E-05  3.518372934785E-05  3.078367045692E-05  2.689334565941E-05
  2.345897088095E-05  2.043179857859E-05  1.776771690148E-05  1.542687384776E-05
  1.337332538981E-05  1.157470656609E-05  1.000192455828E-05  8.628872788414E-06
  7.432165083749E-06  6.390888968410E-06  5.486377151407E-06  4.701996291282E-06
  4.022952129174E-06  3.436110095045E-06  2.929830506536E-06  2.493817496799E-06
  2.118980826713E-06  1.797309758236E-06  1.521758189246E-06  1.286140275866E-06
  1.085035795858E-06  9.137045359098E-07  7.680090163122E-07  6.443448982863E-07
  5.395784518502E-07  4.509904952616E-07  3.762262504770E-07  3.132505924559E-07
  2.603082032478E-07  2.158881744081E-07  1.786926331864E-07  1.476089989269E-07
  1.216855060816E-07  1.001096590097E-07  8.218931123878E-08  6.733608799846E-08
  5.505089560722E-08  4.491128445248E-08  3.656045433023E-08  2.969771115729E-08
  2.407020276660E-08  1.946577961746E-08  1.570684168761E-08  1.264504809082E-08
  1.015677935072E-08  8.139254638154E-09  6.507217493200E-09  5.190113699879E-09
  4.129694129233E-09  3.277983586968E-09  2.595564062904E-09  2.050127349723E-09
  1.615257843364E-09  1.269411520129E-09  9.950616663608E-10  7.779859723516E-10
  6.066731465430E-10  4.718303090911E-10  3.659751318912E-10  2.830990481272E-10
  2.183898976560E-10  1.680041410768E-10  1.288802978742E-10  9.858657218710E-11
  7.519675021933E-11  5.718941002278E-11  4.336629870996E-11  3.278642312328E-11
  2.471298443431E-11  1.857077993221E-11  1.391210944020E-11  1.038957080088E-11
  7.734418656457E-12  5.739401971250E-12  4.245195886510E-12  3.129709012355E-12
  2.299683687939E-12  1.684118816475E-12  1.229136643825E-12  8.939897253206E-13
  6.479652140406E-13  4.679929471250E-13  3.368036548039E-13  2.415156837424E-13
  1.725543398981E-13  1.228285011947E-13  8.710550633407E-14  6.153829948261E-14
  4.330906290124E-14  3.036164108396E-14  2.120139096059E-14  1.474603883590E-14
  1.021497469532E-14  7.047399039863E-15  4.842042122920E-15  3.312948031414E-15
  2.257173843920E-15  1.531289911886E-15  1.034354228805E-15  6.956291799425E-16
  4.657574412316E-16  3.104501970120E-16  2.059920862170E-16  1.360541011504E-16
  8.944395621930E-17  5.852535877590E-17  3.811237731571E-17  2.469970366321E-17
  1.592153887577E-17  1.021784329630E-17  6.524674798629E-18  4.145316935051E-18
  2.620168513925E-18  1.647579347585E-18  1.030580041051E-18  6.412208030151E-19
  3.968219591755E-19  2.442401978639E-19  1.495003835942E-19  9.099982703510E-20
  5.507818381822E-20  0.000000000000E+00  0.000000000000E+00  0.000000000000E+00
  0.000000000000E+00
</data>
</radfunc>
</valence-charge>
<pseudocore-charge matching-radius="0.719246725152"
 number-of-continuous-derivatives="4">
<annotation model-charge-form="Teter function with specified parameters" />
<radfunc>
<data npts="290">
  1.749405015177E+02  1.749254322748E+02  1.748803871178E+02  1.748052425777E+02
  1.746949948225E+02  1.745543488063E+02  1.743751393889E+02  1.741699870019E+02
  1.739393888883E+02  1.736705736499E+02  1.733677001987E+02  1.730386507088E+02
  1.726411887451E+02  1.722263301036E+02  1.718121517230E+02  1.713353925391E+02
  1.707868020972E+02  1.702672037023E+02  1.696835498689E+02  1.690281963007E+02
  1.682926542332E+02  1.676401954867E+02  1.669251419735E+02  1.661417889739E+02
  1.652839748603E+02  1.643450580639E+02  1.633178960893E+02  1.624850248397E+02
  1.615947887927E+02  1.606435888756E+02  1.596276543474E+02  1.585430434055E+02
  1.573856455869E+02  1.561511862977E+02  1.548352338472E+02  1.534332094060E+02
  1.519404003506E+02  1.503519775088E+02  1.492374816958E+02  1.480768267848E+02
  1.468685263144E+02  1.456110890817E+02  1.443030244002E+02  1.429428479819E+02
  1.415290884866E+02  1.400602947827E+02  1.385350439615E+02  1.369519501480E+02
  1.353096741504E+02  1.336069339858E+02  1.318425163192E+02  1.300152888465E+02
  1.281242136489E+02  1.261683615364E+02  1.241469273929E+02  1.220592465222E+02
  1.199048119830E+02  1.176832928876E+02  1.153945536201E+02  1.130386739118E+02
  1.106159696878E+02  1.081270145762E+02  1.055726619391E+02  1.029540672572E+02
  1.002727106611E+02  9.753041936872E+01  9.472938974347E+01  9.330764063309E+01
  9.187220864768E+01  9.042348148817E+01  8.896187371771E+01  8.748782730634E+01
  8.600181214099E+01  8.450432649697E+01  8.299589746635E+01  8.147708133891E+01
  7.994846393097E+01  7.841066085714E+01  7.686431774021E+01  7.531011035382E+01
  7.374874469280E+01  7.218095696582E+01  7.060751350469E+01  6.902921058506E+01
  6.744687415267E+01  6.586135944984E+01  6.427355053629E+01  6.268435969912E+01
  6.109472674624E+01  5.950561817812E+01  5.791802623268E+01  5.633296779840E+01
  5.475148319115E+01  5.317463479032E+01  5.160350553051E+01  5.003919724533E+01
  4.848282886043E+01  4.693553443345E+01  4.539846103938E+01  4.387276650045E+01
  4.235961696046E+01  4.086018430458E+01  3.937564342635E+01  3.790716934496E+01
  3.645593417680E+01  3.502310396669E+01  3.360983538533E+01  3.221727230105E+01
  3.084654223519E+01  2.949875271218E+01  2.817498751668E+01  2.687630287195E+01
  2.560372355506E+01  2.435823896641E+01  2.314079917250E+01  2.195231094257E+01
  2.079363380140E+01  1.966557612205E+01  1.856889128387E+01  1.750427392240E+01
  1.647235629918E+01  1.547370482048E+01  1.450881673498E+01  1.357811704119E+01
  1.268195563582E+01  1.182060473455E+01  1.099425659671E+01  1.020302158491E+01
  9.446926589762E+00  8.725913849085E+00  8.039840189036E+00  7.388476712968E+00
  6.771508961213E+00  6.188537562228E+00  5.639079392160E+00  5.122569256101E+00
  4.638362100066E+00  4.185735757993E+00  3.763894232976E+00  3.371971506406E+00
  3.009035862877E+00  2.674094712562E+00  2.366099886404E+00  2.083953373010E+00
  1.826513459544E+00  1.592601232455E+00  1.381007387511E+00  1.190499292573E+00
  1.019828240853E+00  8.677368273061E-01  7.329663763234E-01  6.142643452627E-01
  5.103916256306E-01  4.201296620793E-01  3.422873089180E-01  2.757073446486E-01
  2.192725672188E-01  1.719113962955E-01  1.326029139357E-01  1.003812815724E-01
  7.433947921319E-02  5.363232209166E-02  3.747872061999E-02  2.516316120176E-02
  1.603639809608E-02  9.515359836936E-03  5.082287438039E-03  2.283135446414E-03
  7.252805152274E-04  7.459519288621E-05  5.195670711557E-05  4.292712937855E-04
  1.025103727588E-03  1.700008827382E-03  2.351666544530E-03  2.909924562701E-03
  3.331851974129E-03  3.596904461466E-03  3.702295507114E-03  3.658659572217E-03
  3.486082136457E-03  3.210558271168E-03  2.860926434515E-03  2.466307920002E-03
  2.054065424832E-03  1.648277154212E-03  1.268706394062E-03  9.302312229124E-04
  6.426856204781E-04  4.110522307055E-04  2.359389223436E-04  1.142664076710E-04
  4.009272740049E-05  5.502415133946E-06  1.493465917004E-06  1.880351719057E-05
  4.862740283982E-05  8.319080985057E-05  1.161583855692E-04  1.428684747135E-04
  1.603998541529E-04  1.674875645750E-04  1.643144939136E-04  1.522121832514E-04
  1.333080370093E-04  1.101565943988E-04  8.538987759399E-05  6.141644024186E-05
  4.019118645304E-05  2.306908014697E-05  1.074639394636E-05  3.284064969716E-06
  1.998882117654E-07  6.104054487721E-07  3.399945250677E-06  7.393576393330E-06
  1.151269469382E-05  1.489622039552E-05  1.697633162177E-05  1.750450373926E-05
  1.653047695262E-05  1.434276513634E-05  1.138370782386E-05  8.154343489209E-06
  5.124335211219E-06  2.659930859759E-06  9.789268841682E-07  1.365186601776E-07
  0.000000000000E+00  0.000000000000E+00  0.000000000000E+00  0.000000000000E+00
  0.000000000000E+00  0.000000000000E+00  0.000000000000E+00  0.000000000000E+00
  0.000000000000E+00  0.000000000000E+00  0.000000000000E+00  0.000000000000E+00
  0.000000000000E+00  0.000000000000E+00  0.000000000000E+00  0.000000000000E+00
  0.000000000000E+00  0.000000000000E+00  0.000000000000E+00  0.000000000000E+00
  0.000000000000E+00  0.000000000000E+00  0.000000000000E+00  0.000000000000E+00
  0.000000000000E+00  0.000000000000E+00  0.000000000000E+00  0.000000000000E+00
  0.000000000000E+00  0.000000000000E+00  0.000000000000E+00  0.000000000000E+00
  0.000000000000E+00  0.000000000000E+00  0.000000000000E+00  0.000000000000E+00
  0.000000000000E+00  0.000000000000E+00  0.000000000000E+00  0.000000000000E+00
  0.000000000000E+00  0.000000000000E+00  0.000000000000E+00  0.000000000000E+00
  0.000000000000E+00  0.000000000000E+00  0.000000000000E+00  0.000000000000E+00
  0.000000000000E+00  0.000000000000E+00  0.000000000000E+00  0.000000000000E+00
  0.000000000000E+00  0.000000000000E+00  0.000000000000E+00  0.000000000000E+00
  0.000000000000E+00  0.000000000000E+00  0.000000000000E+00  0.000000000000E+00
  0.000000000000E+00  0.000000000000E+00
</data>
</radfunc>
</pseudocore-charge>
<semilocal-potentials set="scalar_relativistic">
<slps n="5" l="s" rc="1.40277040049">
<radfunc>
<data npts="290">
 -1.453117232470E+01 -1.453383299039E+01 -1.454178334579E+01 -1.455503642401E+01
 -1.457445856630E+01 -1.459919797780E+01 -1.463065915246E+01 -1.466659042700E+01
 -1.470687127773E+01 -1.475368535420E+01 -1.480624762225E+01 -1.486313389130E+01
 -1.493154529334E+01 -1.500260068203E+01 -1.507318495224E+01 -1.515399865147E+01
 -1.524641580443E+01 -1.533338871473E+01 -1.543043935425E+01 -1.553860751401E+01
 -1.565900752576E+01 -1.576492887782E+01 -1.588007337151E+01 -1.600510186779E+01
 -1.614069459810E+01 -1.628754568286E+01 -1.644635619140E+01 -1.657373354438E+01
 -1.670852293538E+01 -1.685100892153E+01 -1.700146619138E+01 -1.716015593961E+01
 -1.732732184656E+01 -1.750318565772E+01 -1.768794236564E+01 -1.788175500448E+01
 -1.808474907684E+01 -1.829700664249E+01 -1.844367631229E+01 -1.859447466902E+01
 -1.874938578324E+01 -1.890838089182E+01 -1.907141750785E+01 -1.923843852874E+01
 -1.940937134796E+01 -1.958412697633E+01 -1.976259917892E+01 -1.994466363374E+01
 -2.013017711863E+01 -2.031897673268E+01 -2.051087915841E+01 -2.070567997071E+01
 -2.090315299831E+01 -2.110304974308E+01 -2.130509886187E+01 -2.150900571504E+01
 -2.171445198514E+01 -2.192109536825E+01 -2.212856933994E+01 -2.233648299652E+01
 -2.254442097186E+01 -2.275194342885E+01 -2.295858612399E+01 -2.316386054299E+01
 -2.336725410459E+01 -2.356823042981E+01 -2.376622967335E+01 -2.386393161631E+01
 -2.396066891462E+01 -2.405636517121E+01 -2.415094260589E+01 -2.424432207239E+01
 -2.433642307625E+01 -2.442716379366E+01 -2.451646109114E+01 -2.460423054619E+01
 -2.469038646888E+01 -2.477484192458E+01 -2.485750875756E+01 -2.493829761597E+01
 -2.501711797793E+01 -2.509387817894E+01 -2.516848544080E+01 -2.524084590206E+01
 -2.531086465011E+01 -2.537844575518E+01 -2.544349230627E+01 -2.550590644929E+01
 -2.556558942755E+01 -2.562244162475E+01 -2.567636261082E+01 -2.572725119064E+01
 -2.577500545605E+01 -2.581952284132E+01 -2.586070018226E+01 -2.589843377939E+01
 -2.593261946531E+01 -2.596315267654E+01 -2.598992853025E+01 -2.601284190594E+01
 -2.603178753258E+01 -2.604666008129E+01 -2.605735426400E+01 -2.606376493823E+01
 -2.606578721842E+01 -2.606331659391E+01 -2.605624905402E+01 -2.604448122031E+01
 -2.602791048652E+01 -2.600643516623E+01 -2.597995464867E+01 -2.594836956298E+01
 -2.591158195117E+01 -2.586949545010E+01 -2.582201548299E+01 -2.576904946076E+01
 -2.571050699375E+01 -2.564630011441E+01 -2.557634351152E+01 -2.550055477685E+01
 -2.541885466517E+01 -2.533116736850E+01 -2.523742080619E+01 -2.513754693203E+01
 -2.503148206032E+01 -2.491916721290E+01 -2.480054848941E+01 -2.467557746375E+01
 -2.454421160964E+01 -2.440641475924E+01 -2.426215759875E+01 -2.411141820608E+01
 -2.395418263602E+01 -2.379044555934E+01 -2.362021096316E+01 -2.344349292108E+01
 -2.326031644279E+01 -2.307071841446E+01 -2.287474864303E+01 -2.267247101951E+01
 -2.246396481913E+01 -2.224932615873E+01 -2.202866963574E+01 -2.180213017660E+01
 -2.156986512740E+01 -2.133205662473E+01 -2.108891429066E+01 -2.084067830229E+01
 -2.058762289355E+01 -2.033006035415E+01 -2.006834559826E+01 -1.980288138233E+01