<?xml version="1.0" encoding="UTF-8" ?>
<psml version="1.1" energy_unit="hartree" length_unit="bohr"
 uuid="6c46e990-516a-11e8-7dcc-e4ae3bf18f5d"
 xmlns="http://esl.cecam.org/PSML/ns/1.1">
<provenance creator="ONCVPSP-3.3.0+psml-3.3.0-73 (fully-relativistic)"
 date="2018-05-06">
<annotation action="semilocal-pseudopotential-generation"
 action-cont="projectors-generation" />
<input-file name="oncvpsp-input">
<![CDATA[# atsym z nc nv iexc psfile
As 33 3 5 4 both
# n l f
1 0 2.0
2 0 2.0
2 1 6.0
3 0 2.0
3 1 6.0
3 2 10.0
4 0 2.0
4 1 3.0
# lmax
2
# l rc ep ncon nbas qcut
0 1.2 0.0 4 7 9.6
1 1.4 0.0 4 7 10.0
2 1.6 0.0 4 7 10.0
# lloc lpopt rc5 dvloc0
4 5 1.2 0.0
# l nproj debl
0 2 1.0
1 2 1.0
2 2 3.5
# icmod fcfact rcfact
3 2.7 1.5
# epsh1 epsh2 depsh
-12.0 12.0 0.02
# rlmax drl
6.0 0.01
 0
]]>
</input-file>
</provenance>
<pseudo-atom-spec atomic-label="As" atomic-number="33" z-pseudo="23"
 flavor="Hamann&apos;s oncvpsp" relativity="dirac" spin-dft="no"
 core-corrections="yes">
<annotation pseudo-energy="-302.445302708" />
<exchange-correlation>
<annotation oncvpsp-xc-code="4" oncvpsp-xc-type="GGA -- Perdew-Burke-Ernzerhof" />
<libxc-info number-of-functionals="2">
<functional name="Perdew, Burke &amp; Ernzerhof (GGA)" type="exchange" id="101" />
<functional name="Perdew, Burke &amp; Ernzerhof (GGA)" type="correlation"
 id="130" />
</libxc-info>
</exchange-correlation>
<valence-configuration total-valence-charge="23">
<shell n="3" l="s" occupation="2" />
<shell n="3" l="p" occupation="6" />
<shell n="3" l="d" occupation="10" />
<shell n="4" l="s" occupation="2" />
<shell n="4" l="p" occupation="3" />
</valence-configuration>
</pseudo-atom-spec>
<grid npts="457">
<annotation type="sampled from oncvpsp log grid"
 recipe="r(i:1..N) = r1*exp(a*(i-1)) + r=0; resampled"
 recipe-cont="r1: scale; a: step" scale="0.151515151515E-04"
 step="0.119285708653E-01" delta="0.500000000000E-02" rmax="44.2319075471" />
<grid-data>
  0.000000000000E+00  5.050863755537E-03  1.008870397413E-02  1.513466471039E-02
  2.015139445527E-02  2.527754206661E-02  3.059306869357E-02  3.572479163279E-02
  4.073383894775E-02  4.589448142461E-02  5.109578544660E-02  5.621201837620E-02
  6.184054090387E-02  6.722593745724E-02  7.308032240581E-02  7.850250761159E-02
  8.432699115759E-02  8.950950742873E-02  9.501052759205E-02  1.008496260636E-01
  1.070475802516E-01  1.122790953457E-01  1.177662794620E-01  1.235216273841E-01
  1.295582445274E-01  1.358898767811E-01  1.425309418088E-01  1.477238753743E-01
  1.531060068687E-01  1.586842294782E-01  1.644656875329E-01  1.704577856578E-01
  1.766681982559E-01  1.831048793374E-01  1.897760727067E-01  1.966903225206E-01
  2.038564842315E-01  2.112837359290E-01  2.163849704493E-01  2.216093691758E-01
  2.269599057852E-01  2.324396257505E-01  2.380516480746E-01  2.437991670657E-01
  2.496854541554E-01  2.557138597605E-01  2.618878151905E-01  2.682108346005E-01
  2.746865169911E-01  2.813185482573E-01  2.881107032865E-01  2.950668481066E-01
  3.021909420873E-01  3.094870401931E-01  3.169592952915E-01  3.246119605170E-01
  3.324493916917E-01  3.404760498047E-01  3.486965035512E-01  3.571154319329E-01
  3.657376269215E-01  3.745679961859E-01  3.836115658858E-01  3.928734835326E-01
  4.023590209190E-01  4.120735771201E-01  4.220226815661E-01  4.270869537448E-01
  4.322119971898E-01  4.373985411561E-01  4.426473236499E-01  4.479590915337E-01
  4.533346006321E-01  4.587746158397E-01  4.642799112298E-01  4.698512701646E-01
  4.754894854065E-01  4.811953592314E-01  4.869697035422E-01  4.928133399847E-01
  4.987271000645E-01  5.047118252653E-01  5.107683671685E-01  5.168975875745E-01
  5.231003586254E-01  5.293775629289E-01  5.357300936840E-01  5.421588548082E-01
  5.486647610659E-01  5.552487381987E-01  5.619117230571E-01  5.686546637338E-01
  5.754785196986E-01  5.823842619350E-01  5.893728730782E-01  5.964453475551E-01
  6.036026917258E-01  6.108459240265E-01  6.181760751148E-01  6.255941880162E-01
  6.331013182724E-01  6.406985340917E-01  6.483869165008E-01  6.561675594988E-01
  6.640415702128E-01  6.720100690553E-01  6.800741898840E-01  6.882350801626E-01
  6.964939011246E-01  7.048518279380E-01  7.133100498733E-01  7.218697704718E-01
  7.305322077174E-01  7.392985942101E-01  7.481701773406E-01  7.571482194687E-01
  7.662339981023E-01  7.754288060795E-01  7.847339517525E-01  7.941507591735E-01
  8.036805682836E-01  8.133247351030E-01  8.230846319242E-01  8.329616475073E-01
  8.429571872774E-01  8.530726735247E-01  8.633095456070E-01  8.736692601543E-01
  8.841532912762E-01  8.947631307715E-01  9.055002883407E-01  9.163662918008E-01
  9.273626873024E-01  9.384910395501E-01  9.497529320247E-01  9.611499672090E-01
  9.726837668155E-01  9.843559720172E-01  9.961682436815E-01  1.008122262606E+00
  1.020219729757E+00  1.032462366514E+00  1.044851914912E+00  1.057390137891E+00
  1.070078819546E+00  1.082919765380E+00  1.095914802565E+00  1.109065780196E+00
  1.122374569558E+00  1.135843064393E+00  1.149473181165E+00  1.163266859339E+00
  1.177226061651E+00  1.191352774391E+00  1.205649007684E+00  1.220116795776E+00
  1.234758197326E+00  1.249575295693E+00  1.264570199242E+00  1.279745041633E+00
  1.295101982132E+00  1.310643205918E+00  1.326370924389E+00  1.342287375482E+00
  1.358394823987E+00  1.374695561875E+00  1.391191908618E+00  1.407886211521E+00
  1.424780846059E+00  1.441878216212E+00  1.459180754807E+00  1.476690923864E+00
  1.494411214951E+00  1.512344149530E+00  1.530492279324E+00  1.548858186676E+00
  1.567444484916E+00  1.586253818735E+00  1.605288864560E+00  1.624552330935E+00
  1.644046958906E+00  1.663775522413E+00  1.683740828682E+00  1.703945718626E+00
  1.724393067250E+00  1.745085784057E+00  1.766026813465E+00  1.787219135227E+00
  1.808665764850E+00  1.830369754028E+00  1.852334191076E+00  1.874562201369E+00
  1.897056947786E+00  1.919821631159E+00  1.942859490733E+00  1.966173804622E+00
  1.989767890277E+00  2.013645104960E+00  2.037808846220E+00  2.062262552375E+00
  2.087009703003E+00  2.112053819439E+00  2.137398465272E+00  2.163047246856E+00
  2.189003813818E+00  2.215271859584E+00  2.241855121899E+00  2.268757383362E+00
  2.295982471962E+00  2.323534261625E+00  2.351416672765E+00  2.379633672838E+00
  2.408189276912E+00  2.437087548235E+00  2.466332598814E+00  2.495928590000E+00
  2.525879733080E+00  2.556190289877E+00  2.586864573355E+00  2.617906948235E+00
  2.649321831614E+00  2.681113693594E+00  2.713287057917E+00  2.745846502612E+00
  2.778796660643E+00  2.812142220571E+00  2.845887927218E+00  2.880038582344E+00
  2.914599045332E+00  2.949574233876E+00  2.984969124683E+00  3.020788754179E+00
  3.057038219229E+00  3.093722677860E+00  3.130847349994E+00  3.168417518194E+00
  3.206438528413E+00  3.244915790754E+00  3.283854780243E+00  3.323261037606E+00
  3.363140170057E+00  3.403497852097E+00  3.444339826323E+00  3.485671904239E+00
  3.527499967089E+00  3.569829966694E+00  3.612667926295E+00  3.656019941410E+00
  3.699892180707E+00  3.744290886876E+00  3.789222377518E+00  3.834693046048E+00
  3.880709362601E+00  3.927277874952E+00  3.974405209452E+00  4.022098071965E+00
  4.070363248829E+00  4.119207607815E+00  4.168638099108E+00  4.218661756298E+00
  4.269285697373E+00  4.320517125742E+00  4.372363331251E+00  4.424831691226E+00
  4.477929671520E+00  4.531664827579E+00  4.586044805510E+00  4.641077343176E+00
  4.696770271294E+00  4.753131514549E+00  4.810169092724E+00  4.867891121837E+00
  4.926305815299E+00  4.985421485082E+00  5.045246542903E+00  5.105789501418E+00
  5.167058975435E+00  5.229063683140E+00  5.291812447338E+00  5.355314196706E+00
  5.419577967067E+00  5.484612902671E+00  5.550428257503E+00  5.617033396593E+00
  5.684437797353E+00  5.752651050921E+00  5.821682863532E+00  5.891543057894E+00
  5.962241574589E+00  6.033788473484E+00  6.106193935166E+00  6.179468262388E+00
  6.253621881536E+00  6.328665344115E+00  6.404609328244E+00  6.481464640183E+00
  6.559242215865E+00  6.637953122456E+00  6.717608559925E+00  6.798219862644E+00
  6.879798500996E+00  6.962356083008E+00  7.045904356004E+00  7.130455208276E+00
  7.216020670775E+00  7.302612918825E+00  7.390244273851E+00  7.478927205137E+00
  7.568674331599E+00  7.659498423578E+00  7.751412404661E+00  7.844429353517E+00
  7.938562505759E+00  8.033825255828E+00  8.130231158898E+00  8.227793932805E+00
  8.326527459998E+00  8.426445789518E+00  8.527563138992E+00  8.629893896660E+00
  8.733452623420E+00  8.838254054901E+00  8.944313103560E+00  9.051644860803E+00
  9.160264599132E+00  9.270187774322E+00  9.381430027614E+00  9.494007187945E+00
  9.607935274201E+00  9.723230497491E+00  9.839909263461E+00  9.957988174622E+00
  1.007748403272E+01  1.019841384111E+01  1.032079480720E+01  1.044464434489E+01
  1.056998007703E+01  1.069681983795E+01  1.082518167601E+01  1.095508385612E+01
  1.108654486239E+01  1.121958340074E+01  1.135421840155E+01  1.149046902237E+01
  1.162835465064E+01  1.176789490645E+01  1.190910964532E+01  1.205201896107E+01
  1.219664318860E+01  1.234300290686E+01  1.249111894175E+01  1.264101236905E+01
  1.279270451748E+01  1.294621697169E+01  1.310157157535E+01  1.325879043425E+01
  1.341789591946E+01  1.357891067049E+01  1.374185759854E+01  1.390675988972E+01
  1.407364100840E+01  1.424252470050E+01  1.441343499691E+01  1.458639621687E+01
  1.476143297147E+01  1.493857016713E+01  1.511783300913E+01  1.529924700524E+01
  1.548283796931E+01  1.566863202494E+01  1.585665560924E+01  1.604693547655E+01
  1.623949870227E+01  1.643437268670E+01  1.663158515894E+01  1.683116418084E+01
  1.703313815101E+01  1.723753580883E+01  1.744438623853E+01  1.765371887339E+01
  1.786556349987E+01  1.807995026187E+01  1.829690966501E+01  1.851647258100E+01
  1.873867025197E+01  1.896353429499E+01  1.919109670653E+01  1.942138986701E+01
  1.965444654541E+01  1.989029990396E+01  2.012898350281E+01  2.037053130484E+01
  2.061497768050E+01  2.086235741266E+01  2.111270570162E+01  2.136605817003E+01
  2.162245086807E+01  2.188192027849E+01  2.214450332183E+01  2.241023736170E+01
  2.267916021004E+01  2.295131013256E+01  2.322672585415E+01  2.350544656440E+01
  2.378751192317E+01  2.407296206625E+01  2.436183761104E+01  2.465417966238E+01
  2.495002981832E+01  2.524943017614E+01  2.555242333826E+01  2.585905241832E+01
  2.616936104734E+01  2.648339337990E+01  2.680119410046E+01  2.712280842967E+01
  2.744828213082E+01  2.777766151639E+01  2.811099345459E+01  2.844832537605E+01
  2.878970528056E+01  2.913518174393E+01  2.948480392485E+01  2.983862157195E+01
  3.019668503081E+01  3.055904525118E+01  3.092575379420E+01  3.129686283973E+01
  3.167242519381E+01  3.205249429613E+01  3.243712422768E+01  3.282636971842E+01
  3.322028615504E+01  3.361892958890E+01  3.402235674397E+01  3.443062502489E+01
  3.484379252519E+01  3.526191803549E+01  3.568506105192E+01  3.611328178454E+01
  3.654664116596E+01  3.698520085995E+01  3.742902327027E+01  3.787817154951E+01
  3.833270960811E+01  3.879270212340E+01  3.925821454888E+01  3.972931312347E+01
  4.020606488095E+01  4.068853765952E+01  4.117680011144E+01  4.167092171277E+01
  4.217097277333E+01  4.267702444661E+01  4.318914873997E+01  4.370741852485E+01
  4.423190754715E+01
</grid-data>
</grid>
<valence-charge total-charge="23" is-unscreening-charge="yes"
 rescaled-to-z-pseudo="no">
<radfunc>
<data npts="457">
  4.193938541880E+01  4.195271449052E+01  4.199255115032E+01  4.205898481394E+01
  4.215129312211E+01  4.227256734828E+01  4.242696264627E+01  4.260352819370E+01
  4.280176281266E+01  4.303254107235E+01  4.329215674613E+01  4.357372494459E+01
  4.391315617777E+01  4.426664783526E+01  4.468230998972E+01  4.509597534754E+01
  4.557050540569E+01  4.601850328707E+01  4.652002664468E+01  4.708099083692E+01
  4.770782976417E+01  4.826138849543E+01  4.886534919234E+01  4.952371241214E+01
  5.024066336404E+01  5.102054657556E+01  5.186782943013E+01  5.255025271758E+01
  5.327506294246E+01  5.404416322312E+01  5.485941438182E+01  5.572260571555E+01
  5.663542019006E+01  5.759939328851E+01  5.861586468096E+01  5.968592182133E+01
  6.081033452991E+01  6.198947958807E+01  6.280595508420E+01  6.364655368004E+01
  6.451097853866E+01  6.539878912271E+01  6.630938449459E+01  6.724198538538E+01
  6.819561501983E+01  6.916907870147E+01  7.016094218321E+01  7.116950887415E+01
  7.219279596476E+01  7.322850958926E+01  7.427401918770E+01  7.532633128134E+01
  7.638206293359E+01  7.743741523608E+01  7.848814723624E+01  7.952955080758E+01
  8.055642705953E+01  8.156306498691E+01  8.254322317168E+01  8.349011546838E+01
  8.439640172939E+01  8.525418475217E+01  8.605501475626E+01  8.678990281665E+01
  8.744934478673E+01  8.802335733063E+01  8.850152774272E+01  8.870131649892E+01
  8.887307924959E+01  8.901542553431E+01  8.912695345599E+01  8.920625330313E+01
  8.925191149615E+01  8.926251486598E+01  8.923665527139E+01  8.917293456027E+01
  8.906996987736E+01  8.892639931930E+01  8.874088793499E+01  8.851213406631E+01
  8.823887602148E+01  8.791989906942E+01  8.755404274000E+01  8.714020841099E+01
  8.667736715795E+01  8.616456783901E+01  8.560094538102E+01  8.498572922906E+01
  8.431825191539E+01  8.359795769860E+01  8.282441121812E+01  8.199730610323E+01
  8.111647347043E+01  8.018189023680E+01  7.919368717197E+01  7.815215660574E+01
  7.705775970363E+01  7.591113321813E+01  7.471309561965E+01  7.346465250796E+01
  7.216700120269E+01  7.082153441022E+01  6.942984286411E+01  6.799371683726E+01
  6.651514642704E+01  6.499632051799E+01  6.343962433340E+01  6.184763549399E+01
  6.022311851196E+01  5.856901765979E+01  5.688844816700E+01  5.518468571334E+01
  5.346115420458E+01  5.172141183652E+01  4.996913547379E+01  4.820810339335E+01
  4.644217646644E+01  4.467527787846E+01  4.291137151209E+01  4.115443914583E+01
  3.940845664637E+01  3.767736935899E+01  3.596506692514E+01  3.427535777883E+01
  3.261194359420E+01  3.097839397414E+01  2.937812168308E+01  2.781435873710E+01
  2.629013366836E+01  2.480825028026E+01  2.337126820258E+01  2.198148554277E+01
  2.064092390994E+01  1.935131606175E+01  1.811409639217E+01  1.693039443890E+01
  1.580103154511E+01  1.472652076103E+01  1.370707001711E+01  1.274258854460E+01
  1.183269646122E+01  1.097673738145E+01  1.017379385402E+01  9.422705375011E+00
  8.722088675691E+00  8.070359940479E+00  7.465758574656E+00  6.906372114365E+00
  6.390161854236E+00  5.914988761500E+00  5.478639249991E+00  5.078850403060E+00
  4.713334260684E+00  4.379800822162E+00  4.075979460413E+00  3.799638625719E+00
  3.548603940094E+00  3.320774094777E+00  3.114133371014E+00  2.926761938812E+00
  2.756843762271E+00  2.602672334350E+00  2.462654332760E+00  2.335311377470E+00
  2.219280087058E+00  2.113310650371E+00  2.016264138019E+00  1.927108777300E+00
  1.844915069677E+00  1.768849081706E+00  1.698165218680E+00  1.632201370133E+00
  1.570374726593E+00  1.512176684846E+00  1.457167893097E+00  1.404973142514E+00
  1.355276165611E+00  1.307814340850E+00  1.262373307522E+00  1.218779971089E+00
  1.176889735477E+00  1.136572520084E+00  1.097709920455E+00  1.060196148542E+00
  1.023936196587E+00  9.888450978769E-01  9.548470733589E-01  9.218747370753E-01
  8.898683457054E-01  8.587750916562E-01  8.285484387246E-01  7.991474995214E-01
  7.705364535473E-01  7.426840047213E-01  7.155628770652E-01  6.891493471785E-01
  6.634228120800E-01  6.383653909573E-01  6.139615593529E-01  5.901978142104E-01
  5.670623684332E-01  5.445448732936E-01  5.226361672833E-01  5.013280499126E-01
  4.806130790066E-01  4.604843900676E-01  4.409355363068E-01  4.219603479802E-01
  4.035528096978E-01  3.857069544181E-01  3.684167728778E-01  3.516761372504E-01
  3.354787378752E-01  3.198180319404E-01  3.046872030634E-01  2.900791307104E-01
  2.759863685650E-01  2.624011308502E-01  2.493152857718E-01  2.367203552571E-01
  2.246075202193E-01  2.129676306256E-01  2.017912196977E-01  1.910685216185E-01
  1.807894921672E-01  1.709438317484E-01  1.615210103264E-01  1.525102938165E-01
  1.439007715280E-01  1.356813842911E-01  1.278409529373E-01  1.203682068404E-01
  1.132518122549E-01  1.064804002249E-01  1.000425938635E-01  9.392703482648E-02
  8.812240884186E-02  8.261747016065E-02  7.740106483731E-02  7.246215275248E-02
  6.778982831451E-02  6.337333979130E-02  5.920210723828E-02  5.526573900133E-02
  5.155404678468E-02  4.805705928401E-02  4.476503439434E-02  4.166847000971E-02
  3.875811343948E-02  3.602496947179E-02  3.346030712086E-02  3.105566509943E-02
  2.880285606251E-02  2.669396967224E-02  2.472137453744E-02  2.287771908422E-02
  2.115593141697E-02  1.954921823082E-02  1.805106283892E-02  1.665522237852E-02
  1.535572426146E-02  1.414686193440E-02  1.302319001456E-02  1.197951886591E-02
  1.101090868024E-02  1.011266312576E-02  9.280322624699E-03  8.509657318852E-03
  7.796659780089E-03  7.137537519921E-03  6.528705349516E-03  5.966777638454E-03
  5.448560517312E-03  4.971044065865E-03  4.531394525313E-03  4.126946569541E-03
  3.755195667002E-03  3.413790561452E-03  3.100525896481E-03  2.813335005527E-03
  2.550282885999E-03  2.309559373143E-03  2.089472526431E-03  1.888442238639E-03
  1.704994075214E-03  1.537753349258E-03  1.385439435288E-03  1.246860323014E-03
  1.120907410592E-03  1.006550535296E-03  9.028332381578E-04  8.088682579900E-04
  7.238332491982E-04  6.469667170227E-04  5.775641632058E-04  5.149744346240E-04
  4.585962671051E-04  4.078750164707E-04  3.622995687718E-04  3.213994217257E-04
  2.847419294779E-04  2.519297030009E-04  2.225981586840E-04  1.964132079447E-04
  1.730690809968E-04  1.522862782283E-04  1.338096429620E-04  1.174065496882E-04
  1.028652021629E-04  8.999303605614E-05  7.861522110169E-05  6.857325794828E-05
  5.972366514832E-05  5.193675190587E-05  4.509547240681E-05  3.909435773187E-05
  3.383852146567E-05  2.924273528160E-05  2.523057090111E-05  2.173360493155E-05
  1.869068319806E-05  1.604724128598E-05  1.375467810806E-05  1.176977940656E-05
  1.005418819589E-05  8.573919246995E-06  7.298914811966E-06  6.202638885627E-06
  5.261707401663E-06  4.455551863124E-06  3.766114011592E-06  3.177569245245E-06
  2.676076603311E-06  2.249553242441E-06  1.887471438961E-06  1.580676259147E-06
  1.321222147131E-06  1.102226786241E-06  9.177406939791E-07  7.626311129507E-07
  6.324788594735E-07  5.234868878750E-07  4.323994213121E-07  3.564305890220E-07
  2.932015949993E-07  2.406855240195E-07  1.971589675556E-07  1.611597244010E-07
  1.314498986681E-07  1.069837813136E-07  8.687996047898E-08  7.039716082814E-08
  5.691336281680E-08  4.590779958855E-08  3.694547210961E-08  2.966386241117E-08
  2.376156058656E-08  1.898855368748E-08  1.513795407981E-08  1.203897135594E-08
  9.550955760608E-09  7.558362469143E-09  5.966505155726E-09  4.697984293177E-09
  3.689690715622E-09  2.890298323840E-09  2.258171583307E-09  1.759623810478E-09
  1.367471307452E-09  1.059836322140E-09  8.191587039895E-10  6.313821076575E-10
  4.852857727233E-10  3.719373711527E-10  2.842462516437E-10  2.165996985267E-10
  1.645676321633E-10  1.246635699634E-10  9.415169765174E-11  7.089161839403E-11
  5.321379626185E-11  3.981992846869E-11  2.970350130522E-11  2.208663695434E-11
  1.637004776089E-11  1.209350305218E-11  8.904700215622E-12  6.534832729290E-12
  4.779477153501E-12  3.483690611818E-12  2.530430113549E-12  1.831583735379E-12
  1.321048383472E-12  9.494056392177E-13  6.798411024487E-13  4.850278917635E-13
  3.447550324119E-13  2.441292417710E-13  1.722164843660E-13  1.210195585711E-13
  8.471148441768E-14  5.906287848584E-14  4.101587418688E-14  2.836831804056E-14
  1.954062291847E-14  1.340433014941E-14  9.156555912620E-15  6.228417135699E-15
  4.218515340221E-15  2.844825374464E-15  1.910042344701E-15  1.276729426173E-15
  8.495717047288E-16  5.627597582104E-16  3.710599546650E-16  2.435225241301E-16
  1.590683645485E-16  1.034078338631E-16  6.689951856946E-17  4.306922795472E-17
  2.759052534881E-17  1.758633405137E-17  1.115286601178E-17  7.036655527395E-18
  4.416584213881E-18  2.301666703306E-18  1.432194179191E-18  0.000000000000E+00
  0.000000000000E+00  0.000000000000E+00  0.000000000000E+00  0.000000000000E+00
  0.000000000000E+00  0.000000000000E+00  0.000000000000E+00  0.000000000000E+00
  0.000000000000E+00  0.000000000000E+00  0.000000000000E+00  0.000000000000E+00
  0.000000000000E+00  0.000000000000E+00  0.000000000000E+00  0.000000000000E+00
  0.000000000000E+00  0.000000000000E+00  0.000000000000E+00  0.000000000000E+00
  0.000000000000E+00  0.000000000000E+00  0.000000000000E+00  0.000000000000E+00
  0.000000000000E+00  0.000000000000E+00  0.000000000000E+00  0.000000000000E+00
  0.000000000000E+00
</data>
</radfunc>
</valence-charge>
<pseudocore-charge matching-radius="0.320762806835"
 number-of-continuous-derivatives="4">
<annotation model-charge-form="Teter function with specified parameters" />
<radfunc>
<data npts="290">
  2.249256184488E+02  2.248473181413E+02  2.246133764750E+02  2.242234957624E+02
  2.236822879725E+02  2.229721774090E+02  2.220696490455E+02  2.210396070756E+02
  2.198857990631E+02  2.185460942904E+02  2.170435031074E+02  2.154192546309E+02
  2.134686694564E+02  2.114459207309E+02  2.090786608099E+02  2.067347981340E+02
  2.040607952255E+02  2.015506914327E+02  1.987572065002E+02  1.956532306751E+02
  1.922103666280E+02  1.891923676221E+02  1.859234109474E+02  1.823881986997E+02
  1.785716745780E+02  1.744593319710E+02  1.700375867321E+02  1.665108170549E+02
  1.627986130437E+02  1.588972258840E+02  1.548037972744E+02  1.505165288238E+02
  1.460348653241E+02  1.413596907127E+02  1.364935348188E+02  1.314407881273E+02
  1.262079207808E+02  1.208037008687E+02  1.171111514503E+02  1.133514038456E+02
  1.095290185876E+02  1.056491354645E+02  1.017174909489E+02  9.774043150179E+01
  9.372492195606E+01  8.967854813628E+01  8.560951283171E+01  8.152662421607E+01
  7.743927579807E+01  7.335741700043E+01  6.929151350320E+01  6.525249655632E+01
  6.125170057025E+01  5.730078843794E+01  5.341166422904E+01  4.959637313445E+01
  4.586698882610E+01  4.223548873655E+01  3.871361815426E+01  3.531274447004E+01
  3.204370339273E+01  2.891663946750E+01  2.594084376501E+01  2.312459214564E+01
  2.047498801705E+01  1.799781396822E+01  1.569739704566E+01  1.461439768373E+01
  1.357649270290E+01  1.258376582609E+01  1.163619256280E+01  1.073363898189E+01
  9.875861045129E+00  9.062504533155E+00  8.293105591602E+00  7.567091921557E+00
  6.883784633609E+00  6.242400779682E+00  5.642056571046E+00  5.081771284461E+00
  4.560471851760E+00  4.076998120582E+00  3.630108766453E+00  3.218487828271E+00
  2.840751830958E+00  2.495457450706E+00  2.181109669776E+00  1.896170359596E+00
  1.639067222906E+00  1.408203018172E+00  1.201964982557E+00  1.018734363609E+00
  8.568959646329E-01  7.148476046349E-01  5.910093910100E-01  4.838327017786E-01
  3.918087744929E-01  3.134768009138E-01  2.474314303536E-01  1.923295902470E-01
  1.468965400628E-01  1.099310840928E-01  8.030987988209E-02  5.699079198368E-02
  3.901525515712E-02  2.550962686711E-02  1.568552569556E-02  8.839169732693E-03
  4.349746787251E-03  1.676865938036E-03  3.571570959706E-04  1.013918583887E-07
  2.831898796015E-04  9.465207840819E-04  1.786955888676E-03  2.651964253171E-03
  3.433285942780E-03  4.060549575329E-03  4.494975094019E-03  4.723287194572E-03
  4.751955346840E-03  4.601863550456E-03  4.303497182398E-03  3.892715992164E-03
  3.407162059173E-03  2.883330034046E-03  2.354305011015E-03  1.848151747864E-03
  1.386918508091E-03  9.862003748256E-04  6.551912452782E-04  3.971415242168E-04
  2.101303190272E-04  8.805704272691E-05  2.175789278602E-05  1.576037998464E-07
  1.137584788785E-05  4.372012765228E-05  8.651221643520E-05  1.307122244608E-04
  1.693221644767E-04  1.975683591309E-04  2.128780935448E-04  2.146795811849E-04
  2.040647553800E-04  1.833610299834E-04  1.556606810175E-04  1.243548920688E-04
  9.271410819674E-05  6.354778850282E-05  3.896582537124E-05  2.025188178805E-05
  7.846850198036E-06  1.429702963383E-06  7.420335580414E-08  2.454063346085E-06
  7.066640979943E-06  1.244626723567E-05  1.734249663813E-05  2.084534736573E-05
  2.244800890120E-05  2.204644443023E-05  1.988365404395E-05  1.645304848777E-05
  1.237960661329E-05  8.298797630224E-06  4.751601893292E-06  2.109745163540E-06
  5.392248620852E-07  3.364891379934E-09  0.000000000000E+00  0.000000000000E+00
  0.000000000000E+00  0.000000000000E+00  0.000000000000E+00  0.000000000000E+00
  0.000000000000E+00  0.000000000000E+00  0.000000000000E+00  0.000000000000E+00
  0.000000000000E+00  0.000000000000E+00  0.000000000000E+00  0.000000000000E+00
  0.000000000000E+00  0.000000000000E+00  0.000000000000E+00  0.000000000000E+00
  0.000000000000E+00  0.000000000000E+00  0.000000000000E+00  0.000000000000E+00
  0.000000000000E+00  0.000000000000E+00  0.000000000000E+00  0.000000000000E+00
  0.000000000000E+00  0.000000000000E+00  0.000000000000E+00  0.000000000000E+00
  0.000000000000E+00  0.000000000000E+00  0.000000000000E+00  0.000000000000E+00
  0.000000000000E+00  0.000000000000E+00  0.000000000000E+00  0.000000000000E+00
  0.000000000000E+00  0.000000000000E+00  0.000000000000E+00  0.000000000000E+00
  0.000000000000E+00  0.000000000000E+00  0.000000000000E+00  0.000000000000E+00
  0.000000000000E+00  0.000000000000E+00  0.000000000000E+00  0.000000000000E+00
  0.000000000000E+00  0.000000000000E+00  0.000000000000E+00  0.000000000000E+00
  0.000000000000E+00  0.000000000000E+00  0.000000000000E+00  0.000000000000E+00
  0.000000000000E+00  0.000000000000E+00  0.000000000000E+00  0.000000000000E+00
  0.000000000000E+00  0.000000000000E+00  0.000000000000E+00  0.000000000000E+00
  0.000000000000E+00  0.000000000000E+00  0.000000000000E+00  0.000000000000E+00
  0.000000000000E+00  0.000000000000E+00  0.000000000000E+00  0.000000000000E+00
  0.000000000000E+00  0.000000000000E+00  0.000000000000E+00  0.000000000000E+00
  0.000000000000E+00  0.000000000000E+00  0.000000000000E+00  0.000000000000E+00
  0.000000000000E+00  0.000000000000E+00  0.000000000000E+00  0.000000000000E+00
  0.000000000000E+00  0.000000000000E+00  0.000000000000E+00  0.000000000000E+00
  0.000000000000E+00  0.000000000000E+00  0.000000000000E+00  0.000000000000E+00
  0.000000000000E+00  0.000000000000E+00  0.000000000000E+00  0.000000000000E+00
  0.000000000000E+00  0.000000000000E+00  0.000000000000E+00  0.000000000000E+00
  0.000000000000E+00  0.000000000000E+00  0.000000000000E+00  0.000000000000E+00
  0.000000000000E+00  0.000000000000E+00  0.000000000000E+00  0.000000000000E+00
  0.000000000000E+00  0.000000000000E+00  0.000000000000E+00  0.000000000000E+00
  0.000000000000E+00  0.000000000000E+00  0.000000000000E+00  0.000000000000E+00
  0.000000000000E+00  0.000000000000E+00
</data>
</radfunc>
</pseudocore-charge>
<semilocal-potentials set="scalar_relativistic">
<slps n="3" l="s" rc="1.20564900768">
<radfunc>
<data npts="290">
 -4.185262022376E+01 -4.185231789386E+01 -4.185141506785E+01 -4.184991201625E+01
 -4.184782875947E+01 -4.184510077003E+01 -4.184164204178E+01 -4.183770552736E+01
 -4.183330877647E+01 -4.182821904807E+01 -4.182252803701E+01 -4.181639430323E+01
 -4.180904867387E+01 -4.180144949420E+01 -4.179257184551E+01 -4.178379017965E+01
 -4.177377040023E+01 -4.176435272641E+01 -4.175384517333E+01 -4.174212012657E+01
 -4.172903130435E+01 -4.171746544319E+01 -4.170481928852E+01 -4.169097908273E+01
 -4.167581405904E+01 -4.165917289724E+01 -4.164087940783E+01 -4.162595215552E+01
 -4.160988003073E+01 -4.159254963400E+01 -4.157383228825E+01 -4.155358172416E+01
 -4.153163143207E+01 -4.150779163658E+01 -4.148184584396E+01 -4.145354690745E+01
 -4.142261254978E+01 -4.138872027825E+01 -4.136430226921E+01 -4.133828510725E+01
 -4.131053566388E+01 -4.128090851163E+01 -4.124924484485E+01 -4.121537133498E+01
 -4.117909892872E+01 -4.114022160412E+01 -4.109851510837E+01 -4.105373571368E+01
 -4.100561904319E+01 -4.095387903983E+01 -4.089820717470E+01 -4.083827201947E+01
 -4.077371933471E+01 -4.070417284792E+01 -4.062923590377E+01 -4.054849414957E+01
 -4.046151935817E+01 -4.036787437007E+01 -4.026711894874E+01 -4.015881609334E+01
 -4.004253807655E+01 -3.991787124371E+01 -3.978441852513E+01 -3.964179878578E+01
 -3.948964262385E+01 -3.932758498531E+01 -3.915525579426E+01 -3.906511996950E+01
 -3.897227041957E+01 -3.887665551763E+01 -3.877822193391E+01 -3.867691458977E+01
 -3.857267667546E+01 -3.846544972682E+01 -3.835517375415E+01 -3.824178741466E+01
 -3.812522822014E+01 -3.800543277203E+01 -3.788233701851E+01 -3.775587653017E+01
 -3.762598679365E+01 -3.749260352490E+01 -3.735566300509E+01 -3.721510244316E+01
 -3.707086036827E+01 -3.692287705373E+01 -3.677109497133E+01 -3.661545927124E+01
 -3.645591827871E+01 -3.629242399460E+01 -3.612493258307E+01 -3.595340482747E+01
 -3.577780653406E+01 -3.559810886396E+01 -3.541428857650E+01 -3.522632817132E+01
 -3.503421592282E+01 -3.483794580745E+01 -3.463751733171E+01 -3.443293527589E+01
 -3.422420937402E+01 -3.401135395534E+01 -3.379438757398E+01 -3.357333265413E+01
 -3.334821517514E+01 -3.311906441769E+01 -3.288591278621E+01 -3.264879571742E+01
 -3.240775167835E+01 -3.216282225162E+01 -3.191405230083E+01 -3.166149020475E+01
 -3.140518814644E+01 -3.114520244126E+01 -3.088159388741E+01 -3.061442812224E+01
 -3.034377596865E+01 -3.006971375685E+01 -2.979232360829E+01 -2.951169367050E+01
 -2.922791829322E+01 -2.894109813893E+01 -2.865134022305E+01 -2.835875788280E+01
 -2.806347067760E+01 -2.776560422938E+01 -2.746529001824E+01 -2.716266515778E+01
 -2.685787218591E+01 -2.655105892086E+01 -2.624237844841E+01 -2.593198932505E+01
 -2.562005610120E+01 -2.530675028807E+01 -2.499225190777E+01 -2.467675177790E+01
 -2.436045468400E+01 -2.404358358542E+01 -2.372638497926E+01 -2.340913551474E+01
 -2.309214990848E+01 -2.277579016586E+01 -2.246047607203E+01 -2.214669688556E+01
 -2.183502415561E+01 -2.152612559110E+01 -2.122077993617E+01 -2.091989283996E+01
 -2.062451373928E+01 -2.033585378636E+01 -2.005530484653E+01 -1.978445957405E+01