<?xml version="1.0" encoding="UTF-8" ?>
<psml version="1.1" energy_unit="hartree" length_unit="bohr"
 uuid="2e3abec0-4714-11e8-4a90-2dbefef588f2"
 xmlns="http://esl.cecam.org/PSML/ns/1.1">
<provenance creator="ONCVPSP-3.3.0+psml-3.3.0-73 (fully-relativistic)"
 date="2018-04-23">
<annotation action="semilocal-pseudopotential-generation"
 action-cont="projectors-generation" />
<input-file name="oncvpsp-input">
<![CDATA[# atsym z nc nv iexc psfile
As 33 5 3 4 both
# n l f
1 0 2.0
2 0 2.0
2 1 6.0
3 0 2.0
3 1 6.0
3 2 10.0
4 0 2.0
4 1 3.0
# lmax
2
# l rc ep ncon nbas qcut
0 1.75 0.0 4 7 5.0
1 1.6 0.0 4 8 6.6
2 1.8 0.0 4 7 9.0
# lloc lpopt rc5 dvloc0
4 5 1.6 0.0
# l nproj debl
0 2 4.7
1 2 5.2
2 2 2.5
# icmod fcfact rcfact
3 5.0 1.4
# epsh1 epsh2 depsh
-12.0 12.0 0.02
# rlmax drl
6.0 0.01
 0
]]>
</input-file>
</provenance>
<pseudo-atom-spec atomic-label="As" atomic-number="33" z-pseudo="15"
 flavor="Hamann&apos;s oncvpsp" relativity="dirac" spin-dft="no"
 core-corrections="yes">
<annotation pseudo-energy="-95.7514641561" />
<exchange-correlation>
<annotation oncvpsp-xc-code="4" oncvpsp-xc-type="GGA -- Perdew-Burke-Ernzerhof" />
<libxc-info number-of-functionals="2">
<functional name="Perdew, Burke &amp; Ernzerhof (GGA)" type="exchange" id="101" />
<functional name="Perdew, Burke &amp; Ernzerhof (GGA)" type="correlation"
 id="130" />
</libxc-info>
</exchange-correlation>
<valence-configuration total-valence-charge="15">
<shell n="3" l="d" occupation="10" />
<shell n="4" l="s" occupation="2" />
<shell n="4" l="p" occupation="3" />
</valence-configuration>
</pseudo-atom-spec>
<grid npts="457">
<annotation type="sampled from oncvpsp log grid"
 recipe="r(i:1..N) = r1*exp(a*(i-1)) + r=0; resampled"
 recipe-cont="r1: scale; a: step" scale="0.151515151515E-04"
 step="0.119285708653E-01" delta="0.500000000000E-02" rmax="44.2319075471" />
<grid-data>
  0.000000000000E+00  5.050863755537E-03  1.008870397413E-02  1.513466471039E-02
  2.015139445527E-02  2.527754206661E-02  3.059306869357E-02  3.572479163279E-02
  4.073383894775E-02  4.589448142461E-02  5.109578544660E-02  5.621201837620E-02
  6.184054090387E-02  6.722593745724E-02  7.308032240581E-02  7.850250761159E-02
  8.432699115759E-02  8.950950742873E-02  9.501052759205E-02  1.008496260636E-01
  1.070475802516E-01  1.122790953457E-01  1.177662794620E-01  1.235216273841E-01
  1.295582445274E-01  1.358898767811E-01  1.425309418088E-01  1.477238753743E-01
  1.531060068687E-01  1.586842294782E-01  1.644656875329E-01  1.704577856578E-01
  1.766681982559E-01  1.831048793374E-01  1.897760727067E-01  1.966903225206E-01
  2.038564842315E-01  2.112837359290E-01  2.163849704493E-01  2.216093691758E-01
  2.269599057852E-01  2.324396257505E-01  2.380516480746E-01  2.437991670657E-01
  2.496854541554E-01  2.557138597605E-01  2.618878151905E-01  2.682108346005E-01
  2.746865169911E-01  2.813185482573E-01  2.881107032865E-01  2.950668481066E-01
  3.021909420873E-01  3.094870401931E-01  3.169592952915E-01  3.246119605170E-01
  3.324493916917E-01  3.404760498047E-01  3.486965035512E-01  3.571154319329E-01
  3.657376269215E-01  3.745679961859E-01  3.836115658858E-01  3.928734835326E-01
  4.023590209190E-01  4.120735771201E-01  4.220226815661E-01  4.270869537448E-01
  4.322119971898E-01  4.373985411561E-01  4.426473236499E-01  4.479590915337E-01
  4.533346006321E-01  4.587746158397E-01  4.642799112298E-01  4.698512701646E-01
  4.754894854065E-01  4.811953592314E-01  4.869697035422E-01  4.928133399847E-01
  4.987271000645E-01  5.047118252653E-01  5.107683671685E-01  5.168975875745E-01
  5.231003586254E-01  5.293775629289E-01  5.357300936840E-01  5.421588548082E-01
  5.486647610659E-01  5.552487381987E-01  5.619117230571E-01  5.686546637338E-01
  5.754785196986E-01  5.823842619350E-01  5.893728730782E-01  5.964453475551E-01
  6.036026917258E-01  6.108459240265E-01  6.181760751148E-01  6.255941880162E-01
  6.331013182724E-01  6.406985340917E-01  6.483869165008E-01  6.561675594988E-01
  6.640415702128E-01  6.720100690553E-01  6.800741898840E-01  6.882350801626E-01
  6.964939011246E-01  7.048518279380E-01  7.133100498733E-01  7.218697704718E-01
  7.305322077174E-01  7.392985942101E-01  7.481701773406E-01  7.571482194687E-01
  7.662339981023E-01  7.754288060795E-01  7.847339517525E-01  7.941507591735E-01
  8.036805682836E-01  8.133247351030E-01  8.230846319242E-01  8.329616475073E-01
  8.429571872774E-01  8.530726735247E-01  8.633095456070E-01  8.736692601543E-01
  8.841532912762E-01  8.947631307715E-01  9.055002883407E-01  9.163662918008E-01
  9.273626873024E-01  9.384910395501E-01  9.497529320247E-01  9.611499672090E-01
  9.726837668155E-01  9.843559720172E-01  9.961682436815E-01  1.008122262606E+00
  1.020219729757E+00  1.032462366514E+00  1.044851914912E+00  1.057390137891E+00
  1.070078819546E+00  1.082919765380E+00  1.095914802565E+00  1.109065780196E+00
  1.122374569558E+00  1.135843064393E+00  1.149473181165E+00  1.163266859339E+00
  1.177226061651E+00  1.191352774391E+00  1.205649007684E+00  1.220116795776E+00
  1.234758197326E+00  1.249575295693E+00  1.264570199242E+00  1.279745041633E+00
  1.295101982132E+00  1.310643205918E+00  1.326370924389E+00  1.342287375482E+00
  1.358394823987E+00  1.374695561875E+00  1.391191908618E+00  1.407886211521E+00
  1.424780846059E+00  1.441878216212E+00  1.459180754807E+00  1.476690923864E+00
  1.494411214951E+00  1.512344149530E+00  1.530492279324E+00  1.548858186676E+00
  1.567444484916E+00  1.586253818735E+00  1.605288864560E+00  1.624552330935E+00
  1.644046958906E+00  1.663775522413E+00  1.683740828682E+00  1.703945718626E+00
  1.724393067250E+00  1.745085784057E+00  1.766026813465E+00  1.787219135227E+00
  1.808665764850E+00  1.830369754028E+00  1.852334191076E+00  1.874562201369E+00
  1.897056947786E+00  1.919821631159E+00  1.942859490733E+00  1.966173804622E+00
  1.989767890277E+00  2.013645104960E+00  2.037808846220E+00  2.062262552375E+00
  2.087009703003E+00  2.112053819439E+00  2.137398465272E+00  2.163047246856E+00
  2.189003813818E+00  2.215271859584E+00  2.241855121899E+00  2.268757383362E+00
  2.295982471962E+00  2.323534261625E+00  2.351416672765E+00  2.379633672838E+00
  2.408189276912E+00  2.437087548235E+00  2.466332598814E+00  2.495928590000E+00
  2.525879733080E+00  2.556190289877E+00  2.586864573355E+00  2.617906948235E+00
  2.649321831614E+00  2.681113693594E+00  2.713287057917E+00  2.745846502612E+00
  2.778796660643E+00  2.812142220571E+00  2.845887927218E+00  2.880038582344E+00
  2.914599045332E+00  2.949574233876E+00  2.984969124683E+00  3.020788754179E+00
  3.057038219229E+00  3.093722677860E+00  3.130847349994E+00  3.168417518194E+00
  3.206438528413E+00  3.244915790754E+00  3.283854780243E+00  3.323261037606E+00
  3.363140170057E+00  3.403497852097E+00  3.444339826323E+00  3.485671904239E+00
  3.527499967089E+00  3.569829966694E+00  3.612667926295E+00  3.656019941410E+00
  3.699892180707E+00  3.744290886876E+00  3.789222377518E+00  3.834693046048E+00
  3.880709362601E+00  3.927277874952E+00  3.974405209452E+00  4.022098071965E+00
  4.070363248829E+00  4.119207607815E+00  4.168638099108E+00  4.218661756298E+00
  4.269285697373E+00  4.320517125742E+00  4.372363331251E+00  4.424831691226E+00
  4.477929671520E+00  4.531664827579E+00  4.586044805510E+00  4.641077343176E+00
  4.696770271294E+00  4.753131514549E+00  4.810169092724E+00  4.867891121837E+00
  4.926305815299E+00  4.985421485082E+00  5.045246542903E+00  5.105789501418E+00
  5.167058975435E+00  5.229063683140E+00  5.291812447338E+00  5.355314196706E+00
  5.419577967067E+00  5.484612902671E+00  5.550428257503E+00  5.617033396593E+00
  5.684437797353E+00  5.752651050921E+00  5.821682863532E+00  5.891543057894E+00
  5.962241574589E+00  6.033788473484E+00  6.106193935166E+00  6.179468262388E+00
  6.253621881536E+00  6.328665344115E+00  6.404609328244E+00  6.481464640183E+00
  6.559242215865E+00  6.637953122456E+00  6.717608559925E+00  6.798219862644E+00
  6.879798500996E+00  6.962356083008E+00  7.045904356004E+00  7.130455208276E+00
  7.216020670775E+00  7.302612918825E+00  7.390244273851E+00  7.478927205137E+00
  7.568674331599E+00  7.659498423578E+00  7.751412404661E+00  7.844429353517E+00
  7.938562505759E+00  8.033825255828E+00  8.130231158898E+00  8.227793932805E+00
  8.326527459998E+00  8.426445789518E+00  8.527563138992E+00  8.629893896660E+00
  8.733452623420E+00  8.838254054901E+00  8.944313103560E+00  9.051644860803E+00
  9.160264599132E+00  9.270187774322E+00  9.381430027614E+00  9.494007187945E+00
  9.607935274201E+00  9.723230497491E+00  9.839909263461E+00  9.957988174622E+00
  1.007748403272E+01  1.019841384111E+01  1.032079480720E+01  1.044464434489E+01
  1.056998007703E+01  1.069681983795E+01  1.082518167601E+01  1.095508385612E+01
  1.108654486239E+01  1.121958340074E+01  1.135421840155E+01  1.149046902237E+01
  1.162835465064E+01  1.176789490645E+01  1.190910964532E+01  1.205201896107E+01
  1.219664318860E+01  1.234300290686E+01  1.249111894175E+01  1.264101236905E+01
  1.279270451748E+01  1.294621697169E+01  1.310157157535E+01  1.325879043425E+01
  1.341789591946E+01  1.357891067049E+01  1.374185759854E+01  1.390675988972E+01
  1.407364100840E+01  1.424252470050E+01  1.441343499691E+01  1.458639621687E+01
  1.476143297147E+01  1.493857016713E+01  1.511783300913E+01  1.529924700524E+01
  1.548283796931E+01  1.566863202494E+01  1.585665560924E+01  1.604693547655E+01
  1.623949870227E+01  1.643437268670E+01  1.663158515894E+01  1.683116418084E+01
  1.703313815101E+01  1.723753580883E+01  1.744438623853E+01  1.765371887339E+01
  1.786556349987E+01  1.807995026187E+01  1.829690966501E+01  1.851647258100E+01
  1.873867025197E+01  1.896353429499E+01  1.919109670653E+01  1.942138986701E+01
  1.965444654541E+01  1.989029990396E+01  2.012898350281E+01  2.037053130484E+01
  2.061497768050E+01  2.086235741266E+01  2.111270570162E+01  2.136605817003E+01
  2.162245086807E+01  2.188192027849E+01  2.214450332183E+01  2.241023736170E+01
  2.267916021004E+01  2.295131013256E+01  2.322672585415E+01  2.350544656440E+01
  2.378751192317E+01  2.407296206625E+01  2.436183761104E+01  2.465417966238E+01
  2.495002981832E+01  2.524943017614E+01  2.555242333826E+01  2.585905241832E+01
  2.616936104734E+01  2.648339337990E+01  2.680119410046E+01  2.712280842967E+01
  2.744828213082E+01  2.777766151639E+01  2.811099345459E+01  2.844832537605E+01
  2.878970528056E+01  2.913518174393E+01  2.948480392485E+01  2.983862157195E+01
  3.019668503081E+01  3.055904525118E+01  3.092575379420E+01  3.129686283973E+01
  3.167242519381E+01  3.205249429613E+01  3.243712422768E+01  3.282636971842E+01
  3.322028615504E+01  3.361892958890E+01  3.402235674397E+01  3.443062502489E+01
  3.484379252519E+01  3.526191803549E+01  3.568506105192E+01  3.611328178454E+01
  3.654664116596E+01  3.698520085995E+01  3.742902327027E+01  3.787817154951E+01
  3.833270960811E+01  3.879270212340E+01  3.925821454888E+01  3.972931312347E+01
  4.020606488095E+01  4.068853765952E+01  4.117680011144E+01  4.167092171277E+01
  4.217097277333E+01  4.267702444661E+01  4.318914873997E+01  4.370741852485E+01
  4.423190754715E+01
</grid-data>
</grid>
<valence-charge total-charge="15" is-unscreening-charge="yes"
 rescaled-to-z-pseudo="no">
<radfunc>
<data npts="457">
  1.208292598405E-04  1.290440071205E-04  1.619293186238E-04  2.445652729122E-04
  4.171217359843E-04  7.459985373975E-04  1.332835926493E-03  2.235220252098E-03
  3.543053541298E-03  5.459292948707E-03  8.122719282950E-03  1.162107054378E-02
  1.668497537006E-02  2.294669191613E-02  3.160574247257E-02  4.162145562874E-02
  5.483914749860E-02  6.902337602875E-02  8.688119584627E-02  1.093510761317E-01
  1.376042647097E-01  1.653397127555E-01  1.986094008457E-01  2.384893811414E-01
  2.862549018829E-01  3.434139159009E-01  4.117450951213E-01  4.715706567012E-01
  5.398634831724E-01  6.177634012781E-01  7.065495601214E-01  8.076540739196E-01
  9.226761524614E-01  1.053396485816E+00  1.201791562979E+00  1.370047498218E+00
  1.560572811375E+00  1.776009456808E+00  1.934887483362E+00  2.107029075240E+00
  2.293398378810E+00  2.495007990998E+00  2.712917898283E+00  2.948233673675E+00
  3.202103807897E+00  3.475716038866E+00  3.770292531491E+00  4.087083748020E+00
  4.427360838062E+00  4.792406367461E+00  5.183503197083E+00  5.601921316860E+00
  6.048902438082E+00  6.525642148882E+00  7.033269445195E+00  7.572823463575E+00
  8.145227264431E+00  8.751258546201E+00  9.391517214270E+00  1.006638978496E+01
  1.077601067645E+01  1.152022052664E+01  1.229852178518E+01  1.311003195290E+01
  1.395343499050E+01  1.482693158692E+01  1.572818916874E+01  1.618834145107E+01
  1.665429274268E+01  1.712557994977E+01  1.760169789108E+01  1.808209805905E+01
  1.856618748225E+01  1.905332770559E+01  1.954283390585E+01  2.003397416090E+01
  2.052596889193E+01  2.101799049861E+01  2.150916320799E+01  2.199856315823E+01
  2.248521873915E+01  2.296811121123E+01  2.344617562546E+01  2.391830206598E+01
  2.438333723712E+01  2.484008641616E+01  2.528731579206E+01  2.572375520930E+01
  2.614810133460E+01  2.655902126249E+01  2.695515657322E+01  2.733512785427E+01
  2.769753969339E+01  2.804098614788E+01  2.836405669053E+01  2.866534262875E+01
  2.894344398805E+01  2.919697684612E+01  2.942458109775E+01  2.962492862475E+01
  2.979673183836E+01  2.993875255483E+01  3.004981115735E+01  3.012879599029E+01
  3.017467292373E+01  3.018649501895E+01  3.016341221724E+01  3.010468096748E+01
  3.000967370009E+01  2.987788804849E+01  2.970895571277E+01  2.950265085473E+01
  2.925889790896E+01  2.897777869115E+01  2.865953868262E+01  2.830459236952E+01
  2.791352751602E+01  2.748710825396E+01  2.702627687605E+01  2.653215422723E+01
  2.600603859781E+01  2.544940303406E+01  2.486389099617E+01  2.425131030997E+01
  2.361362537815E+01  2.295294763795E+01  2.227152427577E+01  2.157172523460E+01
  2.085602857718E+01  2.012700429593E+01  1.938729668957E+01  1.863960545564E+01
  1.788666567682E+01  1.713122690690E+01  1.637603158806E+01  1.562379305518E+01
  1.487717340314E+01  1.413876150964E+01  1.341105151836E+01  1.269642209360E+01
  1.199711675847E+01  1.131522562338E+01  1.065266879887E+01  1.001118176812E+01
  9.392302967857E+00  8.797363794136E+00  8.227481209642E+00  7.683553084815E+00
  7.166256355020E+00  6.676048022622E+00  6.213168976749E+00  5.777650546504E+00
  5.369323646827E+00  4.987830321900E+00  4.632637440569E+00  4.303052253425E+00
  3.998239483476E+00  3.717239593157E+00  3.458987850923E+00  3.222333811597E+00
  3.006060826601E+00  2.808905213065E+00  2.629574734341E+00  2.466766077711E+00
  2.319181056920E+00  2.185541315787E+00  2.064601362819E+00  1.955159823046E+00
  1.856068850053E+00  1.766241696064E+00  1.684658488604E+00  1.610370306953E+00
  1.542501688484E+00  1.480251723079E+00  1.422893912317E+00  1.369774979060E+00
  1.320312812821E+00  1.273993727894E+00  1.230369196033E+00  1.189051870655E+00
  1.149709975844E+00  1.112060736138E+00  1.075865761422E+00  1.040927405419E+00
  1.007084587198E+00  9.742089950346E-01  9.422013902500E-01  9.109880891659E-01
  8.805177433242E-01  8.507574481372E-01  8.216854457720E-01  7.932832260728E-01
  7.655342067237E-01  7.384245277196E-01  7.119422559286E-01  6.860772092943E-01
  6.608207070699E-01  6.361653450854E-01  6.121047875169E-01  5.886335747000E-01
  5.657469466150E-01  5.434406816072E-01  5.217109498676E-01  5.005541811565E-01
  4.799669462263E-01  4.599458513665E-01  4.404874454725E-01  4.215881390207E-01
  4.032441343218E-01  3.854513663751E-01  3.682054537410E-01  3.515016587057E-01
  3.353348561215E-01  3.196995102641E-01  3.045896590744E-01  2.899989051140E-01
  2.759204126932E-01  2.623469104973E-01  2.492706991638E-01  2.366836632450E-01
  2.245772870163E-01  2.129426736193E-01  2.017705670512E-01  1.910513765399E-01
  1.807752028755E-01  1.709318662899E-01  1.615109355139E-01  1.525017576609E-01
  1.438934886217E-01  1.356751236802E-01  1.278355280849E-01  1.203634673432E-01
  1.132476370267E-01  1.064766919012E-01  1.000392742227E-01  9.392404105304E-02
  8.811969048609E-02  8.261498667194E-02  7.739878356917E-02  7.246004735384E-02
  6.778787743660E-02  6.337152605143E-02  5.920041639229E-02  5.526415928477E-02
  5.155256839005E-02  4.805567394755E-02  4.476373507027E-02  4.166725061463E-02
  3.875696865226E-02  3.602389457768E-02  3.345929789027E-02  3.105471769423E-02
  2.880196696364E-02  2.669313562405E-02  2.472059250502E-02  2.287698622068E-02
  2.115524503842E-02  1.954857579726E-02  1.805046193946E-02  1.665466072008E-02
  1.535519965989E-02  1.414637230751E-02  1.302273337645E-02  1.197909332238E-02
  1.101051242480E-02  1.011229443629E-02  9.279979860303E-03  8.509338917073E-03
  7.796364254223E-03  7.137263456461E-03  6.528451405661E-03  5.966542539668E-03
  5.448343054912E-03  4.970843094636E-03  4.531208961146E-03  4.126775387095E-03
  3.755037897383E-03  3.413645289934E-03  3.100392260249E-03  2.813212191464E-03
  2.550170128513E-03  2.309455952038E-03  2.089377764834E-03  1.888355500971E-03
  1.704914765225E-03  1.537680908114E-03  1.385373339718E-03  1.246800083516E-03
  1.120852569702E-03  1.006500665917E-03  9.027879419480E-04  8.088271638099E-04
  7.237960116204E-04  6.469330148984E-04  5.775336982889E-04  5.149469302514E-04
  4.585714669328E-04  4.078526832631E-04  3.622794832442E-04  3.213813814375E-04
  2.847257477760E-04  2.519152080117E-04  2.225851923528E-04  1.964016251209E-04
  1.730587485638E-04  1.522770742776E-04  1.338014560086E-04  1.173992779279E-04
  1.028587527689E-04  8.998732451452E-05  7.861017058432E-05  6.856879872186E-05
  5.971973401848E-05  5.193329169504E-05  4.509243146459E-05  3.909168947682E-05
  3.383618395705E-05  2.924069082006E-05  2.522878565684E-05  2.173204859886E-05
  1.868932867494E-05  1.604606437759E-05  1.375365725275E-05  1.176889542338E-05
  1.005342405219E-05  8.573259845105E-06  7.298346793712E-06  6.202150453618E-06
  5.261288156214E-06  4.455192653772E-06  3.765806802198E-06  3.177306991693E-06
  2.675853142866E-06  2.249363193873E-06  1.887310112589E-06  1.580539575985E-06
  1.321106566382E-06  1.102129240422E-06  9.176585309938E-07  7.625620444949E-07
  6.324209151709E-07  5.234383746065E-07  4.323588872302E-07  3.563967917824E-07
  2.931734737807E-07  2.406621749352E-07  1.971396220972E-07  1.611437305831E-07
  1.314367045742E-07  1.069729207719E-07  8.687104062117E-08  7.038985130948E-08
  5.690738649816E-08  4.590292450143E-08  3.694150454440E-08  2.966064098609E-08
  2.375895117059E-08  1.898644506522E-08  1.513625425898E-08  1.203760443021E-08
  9.549859250997E-09  7.557485076702E-09  5.965804866838E-09  4.697426786233E-09
  3.689248024676E-09  2.889947720752E-09  2.257894645140E-09  1.759405643551E-09
  1.367299903474E-09  1.059702025413E-09  8.190537717418E-10  6.313003482353E-10
  4.852222486965E-10  3.718881563811E-10  2.842082330670E-10  2.165704149152E-10
  1.645451433210E-10  1.246463509480E-10  9.413855348252E-11  7.088161548669E-11
  5.320620747987E-11  3.981418922224E-11  2.969917458642E-11  2.208338557767E-11
  1.636761239444E-11  1.209168488773E-11  8.903347342760E-12  6.533829457173E-12
  4.778735670555E-12  3.483144493469E-12  2.530029285747E-12  1.831290580968E-12
  1.320834742576E-12  9.492505065290E-13  6.797288658253E-13  4.849469897454E-13
  3.446969347689E-13  2.440876782107E-13  1.721868631781E-13  1.209985300903E-13
  8.469661448622E-14  5.905240514144E-14  4.100852707576E-14  2.836318491551E-14
  1.953705134122E-14  1.340185540748E-14  9.154848376541E-15  6.227243973231E-15
  4.217712789218E-15  2.844278747582E-15  1.909671672023E-15  1.276479190903E-15
  8.494035373879E-16  5.626472597622E-16  3.709850447318E-16  2.434728767591E-16
  1.590356159491E-16  1.033863355604E-16  6.688547409221E-17  4.306009793815E-17
  2.758461958113E-17  1.758253308892E-17  1.115043214689E-17  7.035105077816E-18
  4.415601677802E-18  2.301284257817E-18  1.431953347536E-18  0.000000000000E+00
  0.000000000000E+00  0.000000000000E+00  0.000000000000E+00  0.000000000000E+00
  0.000000000000E+00  0.000000000000E+00  0.000000000000E+00  0.000000000000E+00
  0.000000000000E+00  0.000000000000E+00  0.000000000000E+00  0.000000000000E+00
  0.000000000000E+00  0.000000000000E+00  0.000000000000E+00  0.000000000000E+00
  0.000000000000E+00  0.000000000000E+00  0.000000000000E+00  0.000000000000E+00
  0.000000000000E+00  0.000000000000E+00  0.000000000000E+00  0.000000000000E+00
  0.000000000000E+00  0.000000000000E+00  0.000000000000E+00  0.000000000000E+00
  0.000000000000E+00
</data>
</radfunc>
</valence-charge>
<pseudocore-charge matching-radius="0.648386916501"
 number-of-continuous-derivatives="4">
<annotation model-charge-form="Teter function with specified parameters" />
<radfunc>
<data npts="290">
  1.540686997084E+02  1.540536296179E+02  1.540085829098E+02  1.539334390601E+02
  1.538289831353E+02  1.536916696247E+02  1.535167227755E+02  1.533164725073E+02
  1.530914132258E+02  1.528290931493E+02  1.525335873501E+02  1.522126018925E+02
  1.518249635096E+02  1.514204554443E+02  1.509437272794E+02  1.504681139281E+02
  1.499210500542E+02  1.494031034626E+02  1.488215446735E+02  1.481688466407E+02
  1.474366683423E+02  1.467875339900E+02  1.460764929803E+02  1.452979806716E+02
  1.444460033676E+02  1.435141206165E+02  1.424954305104E+02  1.416700276521E+02
  1.407883706337E+02  1.398470215680E+02  1.388423934040E+02  1.377707534689E+02
  1.366282291384E+02  1.354108159949E+02  1.341143888751E+02  1.327347162466E+02
  1.312674783968E+02  1.297082899587E+02  1.286155634667E+02  1.274786905890E+02
  1.262963616181E+02  1.250672762430E+02  1.237901497296E+02  1.224637197510E+02
  1.210867539076E+02  1.196580579731E+02  1.181764849013E+02  1.166409446270E+02
  1.150504146892E+02  1.134039517022E+02  1.117007036945E+02  1.099399233253E+02
  1.081209819850E+02  1.062433847711E+02  1.043067863223E+02  1.023110074766E+02
  1.002560527054E+02  9.814212825415E+01  9.596966090186E+01  9.373931722434E+01
  9.145202322200E+01  8.910898414180E+01  8.671170429145E+01  8.426200660828E+01
  8.176205170821E+01  7.921435610011E+01  7.662180920990E+01  7.530972528724E+01
  7.398768881601E+01  7.265617239946E+01  7.131567445525E+01  6.996671948906E+01
  6.860985831654E+01  6.724566822921E+01  6.587475309982E+01  6.449774342231E+01
  6.311529628181E+01  6.172809524977E+01  6.033685019923E+01  5.894229703553E+01
  5.754519733736E+01  5.614633790328E+01  5.474653019894E+01  5.334660970019E+01
  5.194743512749E+01  5.054988756718E+01  4.915486947529E+01  4.776330356013E+01
  4.637613153974E+01  4.499431277114E+01  4.361882274847E+01  4.225065146752E+01
  4.089080165510E+01  3.954028686176E+01  3.820012941762E+01  3.687135825129E+01
  3.555500657322E+01  3.425210942513E+01  3.296370109873E+01  3.169081242747E+01
  3.043446795653E+01  2.919568299708E+01  2.797546057253E+01  2.677478826525E+01
  2.559463497400E+01  2.443594759340E+01  2.329964762848E+01  2.218662775838E+01
  2.109774836518E+01  2.003383404495E+01  1.899567011972E+01  1.798399917033E+01
  1.699951761169E+01  1.604287233306E+01  1.511465742726E+01  1.421541103367E+01
  1.334561232111E+01  1.250567863702E+01  1.169596285041E+01  1.091675091606E+01
  1.016825968774E+01  9.450635008142E+00  8.763950102457E+00  8.108204302287E+00
  7.483322124926E+00  6.889152731954E+00  6.325469789072E+00  5.791971746882E+00
  5.288282559677E+00  4.813952856208E+00  4.368461572946E+00  3.951218056462E+00
  3.561564637280E+00  3.198779672950E+00  2.862081053122E+00  2.550630154167E+00
  2.263536225426E+00  1.999861183506E+00  1.758624785328E+00  1.538810144851E+00
  1.339369552703E+00  1.159230552458E+00  9.973022220494E-01  8.524816039592E-01
  7.236602235028E-01  6.097306308225E-01  5.095928992366E-01  4.221610105076E-01
  3.463690564615E-01  2.811771863463E-01  2.255772304156E-01  1.785979325580E-01
  1.393097283882E-01  1.068290101131E-01  8.032182566467E-02  5.900696701957E-02
  4.215841123587E-02  2.910708740930E-02  1.924195335545E-02  1.201037716793E-02
  6.917830675313E-03  3.526913969839E-03  1.455742331616E-03  3.757387232660E-04
  8.886264961442E-06  1.245053968126E-04  5.356294744309E-04  1.095060019489E-03
  1.691188481282E-03  2.243674917632E-03  2.699075284919E-03  3.026507911161E-03
  3.213446159778E-03  3.261718303472E-03  3.183787333894E-03  2.999373040359E-03
  2.732466496509E-03  2.408773478622E-03  2.053608759488E-03  1.690248194157E-03
  1.338730597420E-03  1.015087185851E-03  7.309633914528E-04  4.935866866281E-04
  3.060251651048E-04  1.676753826318E-04  7.491463973186E-05  2.185261303467E-05
  1.119985155538E-06  4.637299034221E-06  2.431532680034E-05  5.264830628332E-05
  8.317284898116E-05  1.107774614073E-04  1.318596995604E-04  1.443392465646E-04
  1.475449707779E-04  1.420016930190E-04  1.291475234136E-04  1.110149642795E-04
  8.990847141662E-05  6.810799978092E-05  4.762262099567E-05  3.001116415654E-05
  1.627871070221E-05  6.849458131388E-06  1.608749983162E-06  6.731437666489E-10
  1.163126457817E-06  4.080039890684E-06  7.730597113866E-06  1.121774869296E-05
  1.386260924462E-05  1.525691240927E-05  1.527181502272E-05  1.402720871337E-05
  1.183057408096E-05  9.097705414996E-06  6.268973964767E-06  3.734094373115E-06
  1.775813896790E-06  5.390242387858E-07  2.716443145959E-08  0.000000000000E+00
  0.000000000000E+00  0.000000000000E+00  0.000000000000E+00  0.000000000000E+00
  0.000000000000E+00  0.000000000000E+00  0.000000000000E+00  0.000000000000E+00
  0.000000000000E+00  0.000000000000E+00  0.000000000000E+00  0.000000000000E+00
  0.000000000000E+00  0.000000000000E+00  0.000000000000E+00  0.000000000000E+00
  0.000000000000E+00  0.000000000000E+00  0.000000000000E+00  0.000000000000E+00
  0.000000000000E+00  0.000000000000E+00  0.000000000000E+00  0.000000000000E+00
  0.000000000000E+00  0.000000000000E+00  0.000000000000E+00  0.000000000000E+00
  0.000000000000E+00  0.000000000000E+00  0.000000000000E+00  0.000000000000E+00
  0.000000000000E+00  0.000000000000E+00  0.000000000000E+00  0.000000000000E+00
  0.000000000000E+00  0.000000000000E+00  0.000000000000E+00  0.000000000000E+00
  0.000000000000E+00  0.000000000000E+00  0.000000000000E+00  0.000000000000E+00
  0.000000000000E+00  0.000000000000E+00  0.000000000000E+00  0.000000000000E+00
  0.000000000000E+00  0.000000000000E+00  0.000000000000E+00  0.000000000000E+00
  0.000000000000E+00  0.000000000000E+00  0.000000000000E+00  0.000000000000E+00
  0.000000000000E+00  0.000000000000E+00  0.000000000000E+00  0.000000000000E+00
  0.000000000000E+00  0.000000000000E+00  0.000000000000E+00  0.000000000000E+00
  0.000000000000E+00  0.000000000000E+00
</data>
</radfunc>
</pseudocore-charge>
<semilocal-potentials set="scalar_relativistic">
<slps n="4" l="s" rc="1.76602681347">
<radfunc>
<data npts="290">
  4.205076362186E+02  4.188811599889E+02  4.140930922536E+02  4.063319445794E+02
  3.959885085028E+02  3.831236271400E+02  3.678300824023E+02  3.516746063417E+02
  3.350347594396E+02  3.174060636937E+02  2.995085783195E+02  2.820758026354E+02
  2.633700267284E+02  2.461371813596E+02  2.283003839242E+02  2.127023560762E+02
  1.969822307195E+02  1.839044479204E+02  1.709453666031E+02  1.581938793235E+02
  1.457331918886E+02  1.360250356445E+02  1.265858531356E+02  1.174457889579E+02
  1.086304942146E+02  1.001610025545E+02  9.205373059067E+01  8.621831303769E+01
  8.059685970472E+01  7.519150254579E+01  7.000315618663E+01  6.503160436966E+01
  6.027559279152E+01  5.573292604298E+01  5.140056655607E+01  4.727473369021E+01
  4.335100133667E+01  3.962439267598E+01  3.724683155554E+01  3.495276572707E+01
  3.274042556534E+01  3.060798863688E+01  2.855358939356E+01  2.657532832384E+01
  2.467128055471E+01  2.283950390309E+01  2.107804638013E+01  1.938495315598E+01
  1.775827299602E+01  1.619606418264E+01  1.469639993871E+01  1.325737337092E+01
  1.187710195208E+01  1.055373156291E+01  9.285440113494E+00  8.070440765523E+00
  6.906984775449E+00  5.793363978886E+00  4.727912935590E+00  3.709010753812E+00
  2.735082611960E+00  1.804600994761E+00  9.160866602443E-01  6.810935314052E-02
 -7.407117205791E-01 -1.511707644193E+00 -2.246159753063E+00 -2.600068727711E+00
 -2.945299798636E+00 -3.281999245728E+00 -3.610310304595E+00 -3.930373187820E+00
 -4.242325109018E+00 -4.546300310028E+00 -4.842430090632E+00 -5.130842841858E+00
 -5.411664082083E+00 -5.685016496624E+00 -5.951019980860E+00 -6.209791687099E+00
 -6.461446075507E+00 -6.706094969385E+00 -6.943847615178E+00 -7.174810747591E+00
 -7.399088660235E+00 -7.616783282289E+00 -7.827994261631E+00 -8.032819054926E+00
 -8.231353025159E+00 -8.423689547076E+00 -8.609920120929E+00 -8.790134494874E+00
 -8.964420796274E+00 -9.132865671998E+00 -9.295554437667E+00 -9.452571235575E+00
 -9.603999200790E+00 -9.749920634621E+00 -9.890417184392E+00 -1.002557002805E+01
 -1.015546006189E+01 -1.028016808919E+01 -1.039977500736E+01 -1.051436199087E+01
 -1.062401066683E+01 -1.072880328015E+01 -1.082882284492E+01 -1.092415327874E+01
 -1.101487951677E+01 -1.110108760261E+01 -1.118286475321E+01 -1.126029939558E+01
 -1.133348117344E+01 -1.140250092234E+01 -1.146745061226E+01 -1.152842325707E+01
 -1.158551279043E+01 -1.163881390779E+01 -1.168842187412E+01 -1.173443229659E+01
 -1.177694086101E+01 -1.181604302991E+01 -1.185183369947E+01 -1.188440681101E+01
 -1.191385491202E+01 -1.194026866007E+01 -1.196373626219E+01 -1.198434284123E+01
 -1.200216972052E+01 -1.201729361858E+01 -1.202978574685E+01 -1.203971080680E+01
 -1.204712588738E+01 -1.205207927161E+01 -1.205460917164E+01 -1.205474242590E+01
 -1.205249320992E+01 -1.204786183349E+01 -1.204083372045E+01 -1.203137869050E+01
 -1.201945068206E+01 -1.200498806644E+01 -1.198791470082E+01 -1.196814184592E+01
 -1.194557102904E+01 -1.192009786503E+01 -1.189161675913E+01 -1.186002631683E+01
 -1.182523518909E+01 -1.178716800221E+01 -1.174577097246E+01 -1.170101679217E+01
 -1.165290839039E+01 -1.160148119943E+01 -1.154680357076E+01 -1.148897495205E+01