<?xml version="1.0" encoding="UTF-8" ?>
<psml version="1.1" energy_unit="hartree" length_unit="bohr"
 uuid="0396bd60-4726-11e8-45c2-b953fe575a95"
 xmlns="http://esl.cecam.org/PSML/ns/1.1">
<provenance creator="ONCVPSP-3.3.0+psml-3.3.0-73 (fully-relativistic)"
 date="2018-04-23">
<annotation action="semilocal-pseudopotential-generation"
 action-cont="projectors-generation" />
<input-file name="oncvpsp-input">
<![CDATA[# atsym z nc nv iexc psfile
Ta 73 10 4 4 both
# n l f
1 0 2.0
2 0 2.0
2 1 6.0
3 0 2.0
3 1 6.0
3 2 10.0
4 0 2.0
4 1 6.0
4 2 10.0
4 3 14.0
5 0 2.0
5 1 6.0
5 2 3.0
6 0 2.0
# lmax
3
# l rc ep ncon nbas qcut
0 1.7 0.0 4 8 7.0
1 1.7 0.0 4 8 7.4
2 1.7 0.0 4 9 6.6
3 2.25 0.5 4 8 6.8
# lloc lpopt rc5 dvloc0
4 5 1.6 0.0
# l nproj debl
0 2 2.0
1 2 1.5
2 2 1.8
3 2 2.5
# icmod fcfact rcfact
3 5.0 1.36
# epsh1 epsh2 depsh
-12.0 12.0 0.02
# rlmax drl
6.0 0.01
 0
]]>
</input-file>
</provenance>
<pseudo-atom-spec atomic-label="Ta" atomic-number="73" z-pseudo="13"
 flavor="Hamann&apos;s oncvpsp" relativity="dirac" spin-dft="no"
 core-corrections="yes">
<annotation pseudo-energy="-58.8073610207" />
<exchange-correlation>
<annotation oncvpsp-xc-code="4" oncvpsp-xc-type="GGA -- Perdew-Burke-Ernzerhof" />
<libxc-info number-of-functionals="2">
<functional name="Perdew, Burke &amp; Ernzerhof (GGA)" type="exchange" id="101" />
<functional name="Perdew, Burke &amp; Ernzerhof (GGA)" type="correlation"
 id="130" />
</libxc-info>
</exchange-correlation>
<valence-configuration total-valence-charge="13">
<shell n="5" l="s" occupation="2" />
<shell n="5" l="p" occupation="6" />
<shell n="5" l="d" occupation="3" />
<shell n="6" l="s" occupation="2" />
</valence-configuration>
</pseudo-atom-spec>
<grid npts="458">
<annotation type="sampled from oncvpsp log grid"
 recipe="r(i:1..N) = r1*exp(a*(i-1)) + r=0; resampled"
 recipe-cont="r1: scale; a: step" scale="0.684931506849E-05"
 step="0.119285708653E-01" delta="0.500000000000E-02" rmax="44.4652856571" />
<grid-data>
  0.000000000000E+00  5.017305651402E-03  1.002167429467E-02  1.503410950261E-02
  2.025771802601E-02  2.541091241664E-02  3.075448503181E-02  3.591328416708E-02
  4.094876041219E-02  4.613663167149E-02  5.136537901594E-02  5.650860641260E-02
  6.216682636963E-02  6.758063756162E-02  7.259477435141E-02  7.798093438119E-02
  8.376671986784E-02  8.891480333121E-02  9.437927453650E-02  1.001795778466E-01
  1.063363526242E-01  1.115331093606E-01  1.169838364460E-01  1.227009456482E-01
  1.286974553096E-01  1.349870199913E-01  1.415839615656E-01  1.467423931104E-01
  1.520887655471E-01  1.576299262629E-01  1.633729721210E-01  1.693252585498E-01
  1.754944089633E-01  1.818883245250E-01  1.885151942671E-01  1.953835055789E-01
  2.025020550769E-01  2.098799598710E-01  2.149473016221E-01  2.201369892725E-01
  2.254519767415E-01  2.308952892679E-01  2.364700251320E-01  2.421793574188E-01
  2.480265358243E-01  2.540148885053E-01  2.601478239733E-01  2.664288330354E-01
  2.728614907802E-01  2.794494586136E-01  2.861964863423E-01  2.931064143086E-01
  3.001831755756E-01  3.074307981667E-01  3.148534073577E-01  3.224552280249E-01
  3.302405870504E-01  3.382139157841E-01  3.463797525668E-01  3.547427453128E-01
  3.633076541556E-01  3.720793541575E-01  3.810628380843E-01  3.902632192470E-01
  3.996857344125E-01  4.093357467842E-01  4.192187490545E-01  4.242493740432E-01
  4.293403665317E-01  4.344924509301E-01  4.397063603412E-01  4.449828366653E-01
  4.503226307053E-01  4.557265022738E-01  4.611952203011E-01  4.667295629447E-01
  4.723303177000E-01  4.779982815124E-01  4.837342608906E-01  4.895390720212E-01
  4.954135408855E-01  5.013585033761E-01  5.073748054166E-01  5.134633030816E-01
  5.196248627186E-01  5.258603610712E-01  5.321706854041E-01  5.385567336290E-01
  5.450194144325E-01  5.515596474057E-01  5.581783631746E-01  5.648765035327E-01
  5.716550215750E-01  5.785148818339E-01  5.854570604160E-01  5.924825451409E-01
  5.995923356826E-01  6.067874437108E-01  6.140688930354E-01  6.214377197518E-01
  6.288949723888E-01  6.364417120575E-01  6.440790126022E-01  6.518079607534E-01
  6.596296562824E-01  6.675452121578E-01  6.755557547037E-01  6.836624237601E-01
  6.918663728453E-01  7.001687693194E-01  7.085707945512E-01  7.170736440859E-01
  7.256785278149E-01  7.343866701487E-01  7.431993101905E-01  7.521177019127E-01
  7.611431143357E-01  7.702768317077E-01  7.795201536882E-01  7.888743955325E-01
  7.983408882789E-01  8.079209789382E-01  8.176160306855E-01  8.274274230537E-01
  8.373565521303E-01  8.474048307559E-01  8.575736887250E-01  8.678645729897E-01
  8.782789478655E-01  8.888182952399E-01  8.994841147828E-01  9.102779241602E-01
  9.212012592501E-01  9.322556743611E-01  9.434427424535E-01  9.547640553629E-01
  9.662212240273E-01  9.778158787156E-01  9.895496692602E-01  1.001424265291E+00
  1.013441356475E+00  1.025602652752E+00  1.037909884586E+00  1.050364803201E+00
  1.062969180839E+00  1.075724811009E+00  1.088633508741E+00  1.101697110846E+00
  1.114917476176E+00  1.128296485890E+00  1.141836043721E+00  1.155538076246E+00
  1.169404533161E+00  1.183437387559E+00  1.197638636209E+00  1.212010299844E+00
  1.226554423442E+00  1.241273076523E+00  1.256168353441E+00  1.271242373683E+00
  1.286497282167E+00  1.301935249553E+00  1.317558472548E+00  1.333369174218E+00
  1.349369604309E+00  1.365562039560E+00  1.381948784035E+00  1.398532169444E+00
  1.415314555477E+00  1.432298330143E+00  1.449485910104E+00  1.466879741026E+00
  1.484482297918E+00  1.502296085493E+00  1.520323638519E+00  1.538567522181E+00
  1.557030332447E+00  1.575714696437E+00  1.594623272794E+00  1.613758752067E+00
  1.633123857092E+00  1.652721343377E+00  1.672553999498E+00  1.692624647492E+00
  1.712936143262E+00  1.733491376981E+00  1.754293273505E+00  1.775344792787E+00
  1.796648930300E+00  1.818208717464E+00  1.840027222073E+00  1.862107548738E+00
  1.884452839323E+00  1.907066273395E+00  1.929951068676E+00  1.953110481500E+00
  1.976547807278E+00  2.000266380965E+00  2.024269577537E+00  2.048560812467E+00
  2.073143542217E+00  2.098021264723E+00  2.123197519900E+00  2.148675890139E+00
  2.174460000820E+00  2.200553520830E+00  2.226960163080E+00  2.253683685037E+00
  2.280727889258E+00  2.308096623929E+00  2.335793783416E+00  2.363823308817E+00
  2.392189188523E+00  2.420895458785E+00  2.449946204290E+00  2.479345558742E+00
  2.509097705447E+00  2.539206877912E+00  2.569677360447E+00  2.600513488772E+00
  2.631719650638E+00  2.663300286445E+00  2.695259889883E+00  2.727603008561E+00
  2.760334244664E+00  2.793458255600E+00  2.826979754667E+00  2.860903511723E+00
  2.895234353864E+00  2.929977166110E+00  2.965136892104E+00  3.000718534809E+00
  3.036727157226E+00  3.073167883113E+00  3.110045897711E+00  3.147366448483E+00
  3.185134845865E+00  3.223356464015E+00  3.262036741583E+00  3.301181182482E+00
  3.340795356672E+00  3.380884900952E+00  3.421455519764E+00  3.462512986001E+00
  3.504063141833E+00  3.546111899535E+00  3.588665242329E+00  3.631729225237E+00
  3.675309975940E+00  3.719413695651E+00  3.764046659999E+00  3.809215219919E+00
  3.854925802558E+00  3.901184912189E+00  3.947999131135E+00  3.995375120709E+00
  4.043319622157E+00  4.091839457623E+00  4.140941531115E+00  4.190632829488E+00
  4.240920423442E+00  4.291811468523E+00  4.343313206145E+00  4.395432964619E+00
  4.448178160195E+00  4.501556298117E+00  4.555574973694E+00  4.610241873379E+00
  4.665564775859E+00  4.721551553170E+00  4.778210171808E+00  4.835548693869E+00
  4.893575278196E+00  4.952298181534E+00  5.011725759713E+00  5.071866468829E+00
  5.132728866455E+00  5.194321612852E+00  5.256653472207E+00  5.319733313873E+00
  5.383570113640E+00  5.448172955003E+00  5.513551030463E+00  5.579713642829E+00
  5.646670206543E+00  5.714430249021E+00  5.783003412010E+00  5.852399452954E+00
  5.922628246389E+00  5.993699785346E+00  6.065624182770E+00  6.138411672963E+00
  6.212072613039E+00  6.286617484395E+00  6.362056894208E+00  6.438401576939E+00
  6.515662395862E+00  6.593850344612E+00  6.672976548748E+00  6.753052267332E+00
  6.834088894540E+00  6.916097961275E+00  6.999091136810E+00  7.083080230452E+00
  7.168077193217E+00  7.254094119536E+00  7.341143248970E+00  7.429236967958E+00
  7.518387811574E+00  7.608608465312E+00  7.699911766896E+00  7.792310708099E+00
  7.885818436596E+00  7.980448257835E+00  8.076213636929E+00  8.173128200572E+00
  8.271205738979E+00  8.370460207847E+00  8.470905730341E+00  8.572556599105E+00
  8.675427278295E+00  8.779532405634E+00  8.884886794502E+00  8.991505436036E+00
  9.099403501268E+00  9.208596343283E+00  9.319099499403E+00  9.430928693396E+00
  9.544099837716E+00  9.658629035769E+00  9.774532584198E+00  9.891826975209E+00
  1.001052889891E+01  1.013065524570E+01  1.025222310865E+01  1.037524978595E+01
  1.049975278338E+01  1.062574981678E+01  1.075325881458E+01  1.088229792036E+01
  1.101288549540E+01  1.114504012135E+01  1.127878060280E+01  1.141412597004E+01
  1.155109548168E+01  1.168970862746E+01  1.182998513099E+01  1.197194495256E+01
  1.211560829199E+01  1.226099559149E+01  1.240812753859E+01  1.255702506906E+01
  1.270770936988E+01  1.286020188232E+01  1.301452430491E+01  1.317069859657E+01
  1.332874697973E+01  1.348869194348E+01  1.365055624681E+01  1.381436292177E+01
  1.398013527683E+01  1.414789690015E+01  1.431767166295E+01  1.448948372291E+01
  1.466335752758E+01  1.483931781791E+01  1.501738963173E+01  1.519759830731E+01
  1.537996948700E+01  1.556452912084E+01  1.575130347029E+01  1.594031911194E+01
  1.613160294128E+01  1.632518217657E+01  1.652108436269E+01  1.671933737505E+01
  1.691996942355E+01  1.712300905663E+01  1.732848516531E+01  1.753642698729E+01
  1.774686411114E+01  1.795982648047E+01  1.817534439824E+01  1.839344853102E+01
  1.861416991339E+01  1.883753995235E+01  1.906359043178E+01  1.929235351696E+01
  1.952386175916E+01  1.975814810027E+01  1.999524587748E+01  2.023518882801E+01
  2.047801109394E+01  2.072374722707E+01  2.097243219379E+01  2.122410138012E+01
  2.147879059668E+01  2.173653608384E+01  2.199737451685E+01  2.226134301105E+01
  2.252847912718E+01  2.279882087671E+01  2.307240672723E+01  2.334927560796E+01
  2.362946691525E+01  2.391302051823E+01  2.419997676445E+01  2.449037648563E+01
  2.478426100345E+01  2.508167213550E+01  2.538265220112E+01  2.568724402754E+01
  2.599549095587E+01  2.630743684734E+01  2.662312608950E+01  2.694260360258E+01
  2.726591484581E+01  2.759310582396E+01  2.792422309385E+01  2.825931377097E+01
  2.859842553622E+01  2.894160664266E+01  2.928890592237E+01  2.964037279344E+01
  2.999605726696E+01  3.035600995416E+01  3.072028207361E+01  3.108892545850E+01
  3.146199256400E+01  3.183953647477E+01  3.222161091246E+01  3.260827024341E+01
  3.299956948633E+01  3.339556432017E+01  3.379631109201E+01  3.420186682512E+01
  3.461228922702E+01  3.502763669774E+01  3.544796833812E+01  3.587334395817E+01
  3.630382408567E+01  3.673946997470E+01  3.718034361440E+01  3.762650773777E+01
  3.807802583062E+01  3.853496214059E+01  3.899738168628E+01  3.946535026651E+01
  3.993893446971E+01  4.041820168335E+01  4.090322010355E+01  4.139405874479E+01
  4.189078744973E+01  4.239347689912E+01  4.290219862191E+01  4.341702500538E+01
  4.393802930544E+01  4.446528565711E+01
</grid-data>
</grid>
<valence-charge total-charge="13" is-unscreening-charge="yes"
 rescaled-to-z-pseudo="no">
<radfunc>
<data npts="458">
  1.915486269886E+00  1.916107218714E+00  1.917963517759E+00  1.921060733505E+00
  1.925605990970E+00  1.931406571384E+00  1.938800969413E+00  1.947270444200E+00
  1.956796329973E+00  1.967908851557E+00  1.980439506720E+00  1.994065397390E+00
  2.010541287423E+00  2.027758235049E+00  2.044967267814E+00  2.064801682815E+00
  2.087657827503E+00  2.109339030637E+00  2.133731366300E+00  2.161168583496E+00
  2.192024046499E+00  2.219448361684E+00  2.249562237559E+00  2.282622912409E+00
  2.318910780602E+00  2.358731144304E+00  2.402416015302E+00  2.437931520375E+00
  2.475986229783E+00  2.516753408529E+00  2.560416763738E+00  2.607170829666E+00
  2.657221317524E+00  2.710785417014E+00  2.768092033765E+00  2.829381943703E+00
  2.894907841706E+00  2.964934257591E+00  3.014254711453E+00  3.065782471168E+00
  3.119604242662E+00  3.175808740861E+00  3.234486552088E+00  3.295729965019E+00
  3.359632766166E+00  3.426289995483E+00  3.495797657198E+00  3.568252380534E+00
  3.643751024467E+00  3.722390220140E+00  3.804265843969E+00  3.889472413953E+00
  3.978102401038E+00  4.070245446845E+00  4.165987478441E+00  4.265409710275E+00
  4.368587522867E+00  4.475589207348E+00  4.586474564592E+00  4.701293347389E+00
  4.820083534054E+00  4.942869421952E+00  5.069659529843E+00  5.200444298671E+00
  5.335193581605E+00  5.473853915793E+00  5.616345570578E+00  5.688995267406E+00
  5.762559369957E+00  5.837019072281E+00  5.912353290896E+00  5.988538546733E+00
  6.065548844005E+00  6.143355546141E+00  6.221927249003E+00  6.301229651613E+00
  6.381225424680E+00  6.461874077230E+00  6.543131821722E+00  6.624951438056E+00
  6.707282136942E+00  6.790069423172E+00  6.873254959352E+00  6.956776430775E+00
  7.040567412129E+00  7.124557236845E+00  7.208670869932E+00  7.292828785245E+00
  7.376946848211E+00  7.460936205096E+00  7.544703180016E+00  7.628149180947E+00
  7.711170616102E+00  7.793658822112E+00  7.875500005545E+00  7.956575199376E+00
  8.036760236103E+00  8.115925739291E+00  8.193937135390E+00  8.270654687747E+00
  8.345933554785E+00  8.419623874381E+00  8.491570876509E+00  8.561615026229E+00
  8.629592199135E+00  8.695333891343E+00  8.758667466087E+00  8.819416438925E+00
  8.877400803499E+00  8.932437399675E+00  8.984340325749E+00  9.032921396256E+00
  9.077990646707E+00  9.119356886325E+00  9.156828299599E+00  9.190213097134E+00
  9.219320215915E+00  9.243960068706E+00  9.263945341830E+00  9.279091840118E+00
  9.289219377237E+00  9.294152709050E+00  9.293722507043E+00  9.287766368173E+00
  9.276129856849E+00  9.258667574000E+00  9.235244247484E+00  9.205735837350E+00
  9.170030648705E+00  9.128030444228E+00  9.079651547672E+00  9.024825928980E+00
  8.963502261077E+00  8.895646937799E+00  8.821245041968E+00  8.740301252220E+00
  8.652840676964E+00  8.558909603673E+00  8.458576151757E+00  8.351930817398E+00
  8.239086899105E+00  8.120180793246E+00  7.995372149520E+00  7.864843877250E+00
  7.728801994467E+00  7.587475313009E+00  7.441114954358E+00  7.289993692504E+00
  7.134405121928E+00  6.974662650626E+00  6.811098320099E+00  6.644061456202E+00
  6.473917156806E+00  6.301044624213E+00  6.125835352203E+00  5.948691179424E+00
  5.770022222549E+00  5.590244704107E+00  5.409778691262E+00  5.229045762863E+00
  5.048466623021E+00  4.868458680060E+00  4.689433610156E+00  4.511794925209E+00
  4.335935564559E+00  4.162235530128E+00  3.991059584453E+00  3.822755030913E+00
  3.657649595348E+00  3.496049428178E+00  3.338237246117E+00  3.184470632681E+00
  3.034980516806E+00  2.889969849040E+00  2.749612494897E+00  2.614052364864E+00
  2.483402800262E+00  2.357746233390E+00  2.237134139117E+00  2.121587293113E+00
  2.011096349182E+00  1.905622744755E+00  1.805099939781E+00  1.709434989188E+00
  1.618510441976E+00  1.532187524763E+00  1.450313388062E+00  1.372730463326E+00
  1.299277792635E+00  1.229792078774E+00  1.164108769282E+00  1.102063009488E+00
  1.043490516514E+00  9.882283705774E-01  9.361157255896E-01  8.869944414900E-01
  8.407096410932E-01  7.971101945894E-01  7.560491351426E-01  7.173840092773E-01
  6.809771659341E-01  6.466959882089E-01  6.144130718747E-01  5.840063548119E-01
  5.553592014567E-01  5.283604463109E-01  5.029044004544E-01  4.788908248594E-01
  4.562248741389E-01  4.348170141696E-01  4.145829168288E-01  3.954433348713E-01
  3.773239597641E-01  3.601552650996E-01  3.438723379524E-01  3.284147005298E-01
  3.137261240571E-01  2.997544368734E-01  2.864513284707E-01  2.737721511485E-01
  2.616757207207E-01  2.501241176774E-01  2.390824900405E-01  2.285188590348E-01
  2.184039285738E-01  2.087108994441E-01  1.994152889480E-01  1.904947566545E-01
  1.819289367927E-01  1.736992777217E-01  1.657888888058E-01  1.581823949361E-01
  1.508657988514E-01  1.438263513375E-01  1.370524293111E-01  1.305334217381E-01
  1.242596232773E-01  1.182221354996E-01  1.124127754886E-01  1.068239915990E-01
  1.014487861211E-01  9.628064457654E-02  9.131347135738E-02  8.654153140518E-02
  8.195939762168E-02  7.756190369747E-02  7.334410204520E-02  6.930122652621E-02
  6.542865966471E-02  6.172190405119E-02  5.817655764563E-02  5.478829270171E-02
  5.155283804443E-02  4.846596444515E-02  4.552347284977E-02  4.272118522674E-02
  4.005493781191E-02  3.752057653665E-02  3.511395443221E-02  3.283093082049E-02
  3.066737207484E-02  2.861915379112E-02  2.668216416795E-02  2.485230841953E-02
  2.312551404476E-02  2.149773678087E-02  1.996496707506E-02  1.852323691439E-02
  1.716862686187E-02  1.589727315630E-02  1.470537474400E-02  1.358920012263E-02
  1.254509389076E-02  1.156948291045E-02  1.065888200489E-02  9.809899127779E-03
  9.019239955627E-03  8.283711868367E-03  7.600227296880E-03  6.965806428612E-03
  6.377579273657E-03  5.832787103712E-03  5.328783285008E-03  4.863033533623E-03
  4.433115627539E-03  4.036718614432E-03  3.671641557602E-03  3.335791864630E-03
  3.027183244602E-03  2.743933339920E-03  2.484261078178E-03  2.246483788307E-03
  2.029014123301E-03  1.830356829531E-03  1.649105399909E-03  1.483938645239E-03
  1.333617214877E-03  1.196980094655E-03  1.072941106730E-03  9.604854327623E-04
  8.586661786876E-04  7.666009989235E-04  6.834687823193E-04  6.085064338273E-04
  5.410057447303E-04  4.803103007302E-04  4.258125860100E-04  3.769511361347E-04
  3.332077806218E-04  2.941050129072E-04  2.592034631186E-04  2.280994730310E-04
  2.004227749187E-04  1.758342729496E-04  1.540239257002E-04  1.347087281966E-04
  1.176307917614E-04  1.025555198514E-04  8.926987798596E-05  7.758075578931E-05
  6.731341908834E-05  5.831004992230E-05  5.042837222595E-05  4.354036084746E-05
  3.753103145595E-05  3.229730878554E-05  2.774697055510E-05  2.379766430003E-05
  2.037599425746E-05  1.741667536233E-05  1.486175134192E-05  1.265987384200E-05
  1.076563948144E-05  9.138981713922E-06  7.744614376151E-06  6.551523821288E-06
  5.532506574097E-06  4.663749498614E-06  3.924449539555E-06  3.296470183030E-06
  2.764031878885E-06  2.313433774264E-06  1.932804223808E-06  1.611877664517E-06
  1.341795570761E-06  1.114929335497E-06  9.247230559701E-07  7.655543343203E-07
  6.326113345248E-07  5.217844656216E-07  4.295711863086E-07  3.529925469138E-07
  2.895202007187E-07  2.370127271713E-07  1.936602142416E-07  1.579361458025E-07
  1.285557322957E-07  1.044399090176E-07  8.468430617186E-08  6.853256847446E-08
  5.535346974612E-08  4.462132978917E-08  3.589929718142E-08  2.882511271001E-08
  2.309901431658E-08  1.847348594838E-08  1.474458992961E-08  1.174465570698E-08
  9.336127400140E-09  7.406398813823E-09  5.863487740394E-09  4.632421787432E-09
  3.652225872824E-09  2.873417194582E-09  2.255927140030E-09  1.767381468220E-09
  1.381680381621E-09  1.077828982692E-09  8.389762551686E-10  6.516272705359E-10
  5.049989335492E-10  3.904943690919E-10  3.012751250879E-10  2.319138193790E-10
  1.781127779406E-10  1.364766727814E-10  1.043292363258E-10  7.956586256269E-11
  6.053535383381E-11  4.594527917253E-11  3.478641300927E-11  2.627255398732E-11
  1.979271013201E-11  1.487320219774E-11  1.114770167399E-11  8.333600610374E-12
  6.213421432245E-12  4.620228309798E-12  3.426207518715E-12  2.533751044405E-12
  1.868512463958E-12  1.374012752823E-12  1.007460957360E-12  7.365246937390E-13
  5.368406342703E-13  3.529578944442E-13  2.561222278949E-13  1.852719534451E-13
  1.335908420990E-13  5.973804007016E-15  3.985609354471E-15  2.646994960053E-15
  1.749856138222E-15  1.151379126199E-15  7.540094147577E-16  4.914201195190E-16
  3.187292210059E-16  2.057113923033E-16  1.321103191589E-16  8.441724676286E-17
  5.366800590857E-17  3.394400071088E-17  2.135733427013E-17  1.336719309654E-17
  8.321758793372E-18  5.152809528595E-18  3.173211378711E-18  1.943351473729E-18
  1.183510971509E-18  7.166920779369E-19  4.315218062989E-19  2.583168923392E-19
  1.537278360500E-19  9.094340922447E-20  5.347834419205E-20  3.125656855215E-20
  1.815639028823E-20  1.048118639902E-20  6.012451298408E-21  3.427046251604E-21
  1.940806791131E-21  1.091955285708E-21  6.103142074223E-22  3.388391762409E-22
  1.868487831918E-22  1.023311864985E-22  5.565586110192E-23  3.005816956255E-23
  1.611854054547E-23  8.581509035477E-24  0.000000000000E+00  0.000000000000E+00
  0.000000000000E+00  0.000000000000E+00  0.000000000000E+00  0.000000000000E+00
  0.000000000000E+00  0.000000000000E+00
</data>
</radfunc>
</valence-charge>
<pseudocore-charge matching-radius="0.989549669260"
 number-of-continuous-derivatives="4">
<annotation model-charge-form="Teter function with specified parameters" />
<radfunc>
<data npts="291">
  4.268541337562E+01  4.268353892825E+01  4.267793536626E+01  4.266858600326E+01
  4.265486581473E+01  4.263735683101E+01  4.261503771342E+01  4.258947467201E+01
  4.256072445433E+01  4.252718735109E+01  4.248937261337E+01  4.244825531655E+01
  4.239854144249E+01  4.234659553006E+01  4.229467744272E+01  4.223484351218E+01
  4.216589996188E+01  4.210050609861E+01  4.202694114860E+01  4.194420033513E+01
  4.185115968878E+01  4.176847197257E+01  4.167768143819E+01  4.157801350095E+01
  4.146862361050E+01  4.134859179778E+01  4.121691698805E+01  4.110986906550E+01
  4.099516874685E+01  4.087229207263E+01  4.074068275585E+01  4.059975074530E+01
  4.044887081961E+01  4.028738123299E+01  4.011458243745E+01  3.992973591063E+01
  3.973206312340E+01  3.952074468687E+01  3.937186140872E+01  3.921626624759E+01
  3.905368552271E+01  3.888383729531E+01  3.870643142943E+01  3.852116969498E+01
  3.832774591836E+01  3.812584618584E+01  3.791514910566E+01  3.769532613492E+01
  3.746604197822E+01  3.722695506486E+01  3.697771811253E+01  3.671797878522E+01
  3.644738045403E+01  3.616556306973E+01  3.587216415640E+01  3.556681993580E+01
  3.524916659255E+01  3.491884169040E+01  3.457548575007E+01  3.421874399917E+01
  3.384826830497E+01  3.346371930017E+01  3.306476871210E+01  3.265110190460E+01
  3.222242064174E+01  3.177844608109E+01  3.131892200315E+01  3.108325586161E+01
  3.084361828181E+01  3.059998518449E+01  3.035233459893E+01  3.010064679238E+01
  2.984490440323E+01  2.958509257785E+01  2.932119911117E+01  2.905321459067E+01
  2.878113254386E+01  2.850494958916E+01  2.822466558978E+01  2.794028381079E+01
  2.765181107886E+01  2.735925794467E+01  2.706263884768E+01  2.676197228293E+01
  2.645728096969E+01  2.614859202153E+01  2.583593711749E+01  2.551935267392E+01
  2.519888001662E+01  2.487456555273E+01  2.454646094191E+01  2.421462326627E+01
  2.387911519838E+01  2.354000516684E+01  2.319736751867E+01  2.285128267775E+01
  2.250183729868E+01  2.214912441512E+01  2.179324358176E+01  2.143430100918E+01
  2.107240969034E+01  2.070768951807E+01  2.034026739218E+01  1.997027731536E+01
  1.959786047658E+01  1.922316532085E+01  1.884634760424E+01  1.846757043278E+01
  1.808700428397E+01  1.770482700973E+01  1.732122381930E+01  1.693638724086E+01
  1.655051706041E+01  1.616382023669E+01  1.577651079058E+01  1.538880966783E+01
  1.500094457366E+01  1.461314977794E+01  1.422566588978E+01  1.383873960019E+01
  1.345262339181E+01  1.306757521445E+01  1.268385812577E+01  1.230173989589E+01
  1.192149257547E+01  1.154339202658E+01  1.116771741581E+01  1.079475066963E+01
  1.042477589164E+01  1.005807874212E+01  9.694945780133E+00  9.335663768927E+00
  8.980518945466E+00  8.629796255411E+00  8.283778555029E+00  7.942745781926E+00
  7.606974096806E+00  7.276734998838E+00  6.952294417594E+00  6.633911784875E+00
  6.321839090193E+00  6.016319924022E+00  5.717588513359E+00  5.425868754552E+00
  5.141373248709E+00  4.864302345418E+00  4.594843200866E+00  4.333168856776E+00
  4.079437346917E+00  3.833790838224E+00  3.596354813785E+00  3.367237305171E+00
  3.146528181706E+00  2.934298504354E+00  2.730599951899E+00  2.535464327022E+00
  2.348903149725E+00  2.170907345281E+00  2.001447033571E+00  1.840471426182E+00
  1.687908837104E+00  1.543666812184E+00  1.407632381703E+00  1.279672439559E+00
  1.159634251512E+00  1.047346093825E+00  9.426180224336E-01  8.452427714201E-01
  7.549967781882E-01  6.716413312392E-01  5.949238349174E-01  5.245791839115E-01
  4.603312387056E-01  4.018943915811E-01  3.489752112111E-01  3.012741523937E-01
  2.584873160605E-01  2.203082434108E-01  1.864297268963E-01  1.565456198347E-01
  1.303526257141E-01  1.075520477800E-01  8.785147931146E-02  7.096641511251E-02
  5.662176519637E-02  4.455325243388E-02  3.450867709015E-02  2.624903268260E-02
  1.954945945658E-02  1.420002397647E-02  1.000631584639E-02  6.789855371095E-03
  4.388309000276E-03  2.655512613165E-03  1.461306031908E-03  6.911855282273E-04
  2.457844291710E-04  4.019514860380E-05  3.148983052555E-06  7.607272408012E-05
  2.120434674230E-04  3.746648598258E-04  5.368893448179E-04  6.798116877430E-04
  7.914591328898E-04  8.656029449591E-04  9.006148080882E-04  8.983896164616E-04
  8.633536341403E-04  8.015738962771E-04  7.199811618400E-04  6.257148243051E-04
  5.255940756601E-04  4.257154493924E-04  3.311727979172E-04  2.458919494854E-04
  1.725688942945E-04  1.126975115444E-04  6.667068981376E-05  3.393730507137E-05
  1.319696143522E-05  2.614686632439E-06  3.888065359910E-08  3.207671577505E-06
  9.931323705507E-06  1.824131894129E-05  2.650001156042E-05  3.346813794643E-05
  3.833073772634E-05  4.068500839417E-05  4.049608981359E-05  3.802861000816E-05
  3.376291767242E-05  2.830523351654E-05  2.230048607689E-05  1.635543314490E-05
  1.097793883527E-05  6.536156047570E-06  3.239063574046E-06  1.137548174346E-06
  1.432185861991E-07  6.057596697500E-08  6.271812316449E-07  1.556129138123E-06
  2.575465368303E-06  3.460097279691E-06  4.053116957960E-06  4.275091755095E-06
  4.121569117082E-06  3.650573317065E-06  2.963051085976E-06  2.179910974154E-06
  1.419427358259E-06  7.783542353231E-07  3.192054440580E-07  6.496238079809E-08
  0.000000000000E+00  0.000000000000E+00  0.000000000000E+00  0.000000000000E+00
  0.000000000000E+00  0.000000000000E+00  0.000000000000E+00  0.000000000000E+00
  0.000000000000E+00  0.000000000000E+00  0.000000000000E+00  0.000000000000E+00
  0.000000000000E+00  0.000000000000E+00  0.000000000000E+00  0.000000000000E+00
  0.000000000000E+00  0.000000000000E+00  0.000000000000E+00  0.000000000000E+00
  0.000000000000E+00  0.000000000000E+00  0.000000000000E+00  0.000000000000E+00
  0.000000000000E+00  0.000000000000E+00  0.000000000000E+00  0.000000000000E+00
  0.000000000000E+00  0.000000000000E+00  0.000000000000E+00  0.000000000000E+00
  0.000000000000E+00  0.000000000000E+00  0.000000000000E+00
</data>
</radfunc>
</pseudocore-charge>
<semilocal-potentials set="scalar_relativistic">
<slps n="5" l="s" rc="1.71293614326">
<radfunc>
<data npts="291">
 -6.100708360805E+00 -6.101596206420E+00 -6.104249771278E+00 -6.108675220907E+00
 -6.115165189524E+00 -6.123439792380E+00 -6.133975361384E+00 -6.146025341076E+00
 -6.159556235348E+00 -6.175311359079E+00 -6.193039122784E+00 -6.212270866939E+00
 -6.235462070713E+00 -6.259622949021E+00 -6.283698096303E+00 -6.311354041575E+00
 -6.343101740898E+00 -6.373097849270E+00 -6.406706578560E+00 -6.444336947336E+00
 -6.486437460136E+00 -6.523664209027E+00 -6.564335272994E+00 -6.608739297742E+00
 -6.657183044947E+00 -6.709991255543E+00 -6.767506182800E+00 -6.813946468225E+00
 -6.863392978468E+00 -6.916007257732E+00 -6.971954707133E+00 -7.031403900715E+00
 -7.094525757214E+00 -7.161492552609E+00 -7.232476758309E+00 -7.307649689915E+00
 -7.387179951972E+00 -7.471231664980E+00 -7.529856234170E+00 -7.590605225556E+00
 -7.653521246661E+00 -7.718644517689E+00 -7.786012504477E+00 -7.855659529118E+00
 -7.927616358429E+00 -8.001909770653E+00 -8.078562100956E+00 -8.157590766586E+00
 -8.239007772747E+00 -8.322819200539E+00 -8.409024678583E+00 -8.497616840223E+00
 -8.588580768515E+00 -8.681893431440E+00 -8.777523110148E+00 -8.875428823225E+00
 -8.975559750312E+00 -9.077854658602E+00 -9.182241335984E+00 -9.288636034785E+00
 -9.396942930225E+00 -9.507053597837E+00 -9.618846514159E+00 -9.732186585099E+00
 -9.846924706335E+00 -9.962897360120E+00 -1.007992625279E+01 -1.013877695250E+01
 -1.019781799715E+01 -1.025702281092E+01 -1.031636384392E+01 -1.037581256676E+01
 -1.043533946606E+01 -1.049491404087E+01 -1.055450480006E+01 -1.061407926075E+01
 -1.067360394774E+01 -1.073304439402E+01 -1.079236514238E+01 -1.085152974812E+01
 -1.091050078289E+01 -1.096923983977E+01 -1.102770753952E+01 -1.108586353806E+01
 -1.114366653526E+01 -1.120107428503E+01 -1.125804360671E+01 -1.131453039793E+01
 -1.137048964884E+01 -1.142587545779E+01 -1.148064104858E+01 -1.153473878920E+01
 -1.158812021225E+01 -1.164073603696E+01 -1.169253619300E+01 -1.174346984595E+01
 -1.179348542474E+01 -1.184253065091E+01 -1.189055256984E+01 -1.193749758406E+01
 -1.198331148862E+01 -1.202793950866E+01 -1.207132633921E+01 -1.211341618731E+01
 -1.215415281653E+01 -1.219347959390E+01 -1.223133953936E+01 -1.226767537778E+01
 -1.230242959357E+01 -1.233554448789E+01 -1.236696223858E+01 -1.239662496268E+01
 -1.242447478159E+01 -1.245045388886E+01 -1.247450462050E+01 -1.249656952769E+01
 -1.251659145182E+01 -1.253451360171E+01 -1.255027963268E+01 -1.256383372739E+01
 -1.257512067805E+01 -1.258408596964E+01 -1.259067586385E+01 -1.259483748322E+01
 -1.259651889498E+01 -1.259566919409E+01 -1.259223858484E+01 -1.258617846047E+01
 -1.257744148002E+01 -1.256598164186E+01 -1.255175435307E+01 -1.253471649411E+01
 -1.251482647800E+01 -1.249204430349E+01 -1.246633160154E+01 -1.243765167486E+01
 -1.240596953000E+01 -1.237125190195E+01 -1.233346727139E+01 -1.229258587487E+01
 -1.224857970869E+01 -1.220142252744E+01 -1.215108983893E+01 -1.209755889743E+01
 -1.204080869798E+01 -1.198081997521E+01 -1.191757521085E+01 -1.185105865512E+01