<?xml version="1.0" encoding="UTF-8" ?>
<psml version="1.1" energy_unit="hartree" length_unit="bohr"
 uuid="435bd1a0-5212-11e8-7bc4-78b2fe7d3962"
 xmlns="http://esl.cecam.org/PSML/ns/1.1">
<provenance creator="ONCVPSP-3.3.0+psml-3.3.0-73 (fully-relativistic)"
 date="2018-05-07">
<annotation action="semilocal-pseudopotential-generation"
 action-cont="projectors-generation" />
<input-file name="oncvpsp-input">
<![CDATA[# atsym z nc nv iexc psfile
Ta 73 9 5 4 both
# n l f
1 0 2.0
2 0 2.0
2 1 6.0
3 0 2.0
3 1 6.0
3 2 10.0
4 0 2.0
4 1 6.0
4 2 10.0
4 3 14.0
5 0 2.0
5 1 6.0
5 2 3.0
6 0 2.0
# lmax
3
# l rc ep ncon nbas qcut
0 2.30 0.0 4 7 5.2
1 1.85 0.0 4 7 6.6
2 2.05 0.0 4 9 6.6
3 1.6 0.0 4 8 11.4
# lloc lpopt rc5 dvloc0
4 5 1.6 0.0
# l nproj debl
0 2 2.0
1 2 1.5
2 2 1.8
3 2 1.0
# icmod fcfact
3 5 1.36
# epsh1 epsh2 depsh
-12.0 12.0 0.02
# rlmax drl
6.0 0.01
 0
]]>
</input-file>
</provenance>
<pseudo-atom-spec atomic-label="Ta" atomic-number="73" z-pseudo="27"
 flavor="Hamann&apos;s oncvpsp" relativity="dirac" spin-dft="no"
 core-corrections="yes">
<annotation pseudo-energy="-301.893109478" />
<exchange-correlation>
<annotation oncvpsp-xc-code="4" oncvpsp-xc-type="GGA -- Perdew-Burke-Ernzerhof" />
<libxc-info number-of-functionals="2">
<functional name="Perdew, Burke &amp; Ernzerhof (GGA)" type="exchange" id="101" />
<functional name="Perdew, Burke &amp; Ernzerhof (GGA)" type="correlation"
 id="130" />
</libxc-info>
</exchange-correlation>
<valence-configuration total-valence-charge="27">
<shell n="4" l="f" occupation="14" />
<shell n="5" l="s" occupation="2" />
<shell n="5" l="p" occupation="6" />
<shell n="5" l="d" occupation="3" />
<shell n="6" l="s" occupation="2" />
</valence-configuration>
</pseudo-atom-spec>
<grid npts="458">
<annotation type="sampled from oncvpsp log grid"
 recipe="r(i:1..N) = r1*exp(a*(i-1)) + r=0; resampled"
 recipe-cont="r1: scale; a: step" scale="0.684931506849E-05"
 step="0.119285708653E-01" delta="0.500000000000E-02" rmax="44.4652856571" />
<grid-data>
  0.000000000000E+00  5.017305651402E-03  1.002167429467E-02  1.503410950261E-02
  2.025771802601E-02  2.541091241664E-02  3.075448503181E-02  3.591328416708E-02
  4.094876041219E-02  4.613663167149E-02  5.136537901594E-02  5.650860641260E-02
  6.216682636963E-02  6.758063756162E-02  7.259477435141E-02  7.798093438119E-02
  8.376671986784E-02  8.891480333121E-02  9.437927453650E-02  1.001795778466E-01
  1.063363526242E-01  1.115331093606E-01  1.169838364460E-01  1.227009456482E-01
  1.286974553096E-01  1.349870199913E-01  1.415839615656E-01  1.467423931104E-01
  1.520887655471E-01  1.576299262629E-01  1.633729721210E-01  1.693252585498E-01
  1.754944089633E-01  1.818883245250E-01  1.885151942671E-01  1.953835055789E-01
  2.025020550769E-01  2.098799598710E-01  2.149473016221E-01  2.201369892725E-01
  2.254519767415E-01  2.308952892679E-01  2.364700251320E-01  2.421793574188E-01
  2.480265358243E-01  2.540148885053E-01  2.601478239733E-01  2.664288330354E-01
  2.728614907802E-01  2.794494586136E-01  2.861964863423E-01  2.931064143086E-01
  3.001831755756E-01  3.074307981667E-01  3.148534073577E-01  3.224552280249E-01
  3.302405870504E-01  3.382139157841E-01  3.463797525668E-01  3.547427453128E-01
  3.633076541556E-01  3.720793541575E-01  3.810628380843E-01  3.902632192470E-01
  3.996857344125E-01  4.093357467842E-01  4.192187490545E-01  4.242493740432E-01
  4.293403665317E-01  4.344924509301E-01  4.397063603412E-01  4.449828366653E-01
  4.503226307053E-01  4.557265022738E-01  4.611952203011E-01  4.667295629447E-01
  4.723303177000E-01  4.779982815124E-01  4.837342608906E-01  4.895390720212E-01
  4.954135408855E-01  5.013585033761E-01  5.073748054166E-01  5.134633030816E-01
  5.196248627186E-01  5.258603610712E-01  5.321706854041E-01  5.385567336290E-01
  5.450194144325E-01  5.515596474057E-01  5.581783631746E-01  5.648765035327E-01
  5.716550215750E-01  5.785148818339E-01  5.854570604160E-01  5.924825451409E-01
  5.995923356826E-01  6.067874437108E-01  6.140688930354E-01  6.214377197518E-01
  6.288949723888E-01  6.364417120575E-01  6.440790126022E-01  6.518079607534E-01
  6.596296562824E-01  6.675452121578E-01  6.755557547037E-01  6.836624237601E-01
  6.918663728453E-01  7.001687693194E-01  7.085707945512E-01  7.170736440859E-01
  7.256785278149E-01  7.343866701487E-01  7.431993101905E-01  7.521177019127E-01
  7.611431143357E-01  7.702768317077E-01  7.795201536882E-01  7.888743955325E-01
  7.983408882789E-01  8.079209789382E-01  8.176160306855E-01  8.274274230537E-01
  8.373565521303E-01  8.474048307559E-01  8.575736887250E-01  8.678645729897E-01
  8.782789478655E-01  8.888182952399E-01  8.994841147828E-01  9.102779241602E-01
  9.212012592501E-01  9.322556743611E-01  9.434427424535E-01  9.547640553629E-01
  9.662212240273E-01  9.778158787156E-01  9.895496692602E-01  1.001424265291E+00
  1.013441356475E+00  1.025602652752E+00  1.037909884586E+00  1.050364803201E+00
  1.062969180839E+00  1.075724811009E+00  1.088633508741E+00  1.101697110846E+00
  1.114917476176E+00  1.128296485890E+00  1.141836043721E+00  1.155538076246E+00
  1.169404533161E+00  1.183437387559E+00  1.197638636209E+00  1.212010299844E+00
  1.226554423442E+00  1.241273076523E+00  1.256168353441E+00  1.271242373683E+00
  1.286497282167E+00  1.301935249553E+00  1.317558472548E+00  1.333369174218E+00
  1.349369604309E+00  1.365562039560E+00  1.381948784035E+00  1.398532169444E+00
  1.415314555477E+00  1.432298330143E+00  1.449485910104E+00  1.466879741026E+00
  1.484482297918E+00  1.502296085493E+00  1.520323638519E+00  1.538567522181E+00
  1.557030332447E+00  1.575714696437E+00  1.594623272794E+00  1.613758752067E+00
  1.633123857092E+00  1.652721343377E+00  1.672553999498E+00  1.692624647492E+00
  1.712936143262E+00  1.733491376981E+00  1.754293273505E+00  1.775344792787E+00
  1.796648930300E+00  1.818208717464E+00  1.840027222073E+00  1.862107548738E+00
  1.884452839323E+00  1.907066273395E+00  1.929951068676E+00  1.953110481500E+00
  1.976547807278E+00  2.000266380965E+00  2.024269577537E+00  2.048560812467E+00
  2.073143542217E+00  2.098021264723E+00  2.123197519900E+00  2.148675890139E+00
  2.174460000820E+00  2.200553520830E+00  2.226960163080E+00  2.253683685037E+00
  2.280727889258E+00  2.308096623929E+00  2.335793783416E+00  2.363823308817E+00
  2.392189188523E+00  2.420895458785E+00  2.449946204290E+00  2.479345558742E+00
  2.509097705447E+00  2.539206877912E+00  2.569677360447E+00  2.600513488772E+00
  2.631719650638E+00  2.663300286445E+00  2.695259889883E+00  2.727603008561E+00
  2.760334244664E+00  2.793458255600E+00  2.826979754667E+00  2.860903511723E+00
  2.895234353864E+00  2.929977166110E+00  2.965136892104E+00  3.000718534809E+00
  3.036727157226E+00  3.073167883113E+00  3.110045897711E+00  3.147366448483E+00
  3.185134845865E+00  3.223356464015E+00  3.262036741583E+00  3.301181182482E+00
  3.340795356672E+00  3.380884900952E+00  3.421455519764E+00  3.462512986001E+00
  3.504063141833E+00  3.546111899535E+00  3.588665242329E+00  3.631729225237E+00
  3.675309975940E+00  3.719413695651E+00  3.764046659999E+00  3.809215219919E+00
  3.854925802558E+00  3.901184912189E+00  3.947999131135E+00  3.995375120709E+00
  4.043319622157E+00  4.091839457623E+00  4.140941531115E+00  4.190632829488E+00
  4.240920423442E+00  4.291811468523E+00  4.343313206145E+00  4.395432964619E+00
  4.448178160195E+00  4.501556298117E+00  4.555574973694E+00  4.610241873379E+00
  4.665564775859E+00  4.721551553170E+00  4.778210171808E+00  4.835548693869E+00
  4.893575278196E+00  4.952298181534E+00  5.011725759713E+00  5.071866468829E+00
  5.132728866455E+00  5.194321612852E+00  5.256653472207E+00  5.319733313873E+00
  5.383570113640E+00  5.448172955003E+00  5.513551030463E+00  5.579713642829E+00
  5.646670206543E+00  5.714430249021E+00  5.783003412010E+00  5.852399452954E+00
  5.922628246389E+00  5.993699785346E+00  6.065624182770E+00  6.138411672963E+00
  6.212072613039E+00  6.286617484395E+00  6.362056894208E+00  6.438401576939E+00
  6.515662395862E+00  6.593850344612E+00  6.672976548748E+00  6.753052267332E+00
  6.834088894540E+00  6.916097961275E+00  6.999091136810E+00  7.083080230452E+00
  7.168077193217E+00  7.254094119536E+00  7.341143248970E+00  7.429236967958E+00
  7.518387811574E+00  7.608608465312E+00  7.699911766896E+00  7.792310708099E+00
  7.885818436596E+00  7.980448257835E+00  8.076213636929E+00  8.173128200572E+00
  8.271205738979E+00  8.370460207847E+00  8.470905730341E+00  8.572556599105E+00
  8.675427278295E+00  8.779532405634E+00  8.884886794502E+00  8.991505436036E+00
  9.099403501268E+00  9.208596343283E+00  9.319099499403E+00  9.430928693396E+00
  9.544099837716E+00  9.658629035769E+00  9.774532584198E+00  9.891826975209E+00
  1.001052889891E+01  1.013065524570E+01  1.025222310865E+01  1.037524978595E+01
  1.049975278338E+01  1.062574981678E+01  1.075325881458E+01  1.088229792036E+01
  1.101288549540E+01  1.114504012135E+01  1.127878060280E+01  1.141412597004E+01
  1.155109548168E+01  1.168970862746E+01  1.182998513099E+01  1.197194495256E+01
  1.211560829199E+01  1.226099559149E+01  1.240812753859E+01  1.255702506906E+01
  1.270770936988E+01  1.286020188232E+01  1.301452430491E+01  1.317069859657E+01
  1.332874697973E+01  1.348869194348E+01  1.365055624681E+01  1.381436292177E+01
  1.398013527683E+01  1.414789690015E+01  1.431767166295E+01  1.448948372291E+01
  1.466335752758E+01  1.483931781791E+01  1.501738963173E+01  1.519759830731E+01
  1.537996948700E+01  1.556452912084E+01  1.575130347029E+01  1.594031911194E+01
  1.613160294128E+01  1.632518217657E+01  1.652108436269E+01  1.671933737505E+01
  1.691996942355E+01  1.712300905663E+01  1.732848516531E+01  1.753642698729E+01
  1.774686411114E+01  1.795982648047E+01  1.817534439824E+01  1.839344853102E+01
  1.861416991339E+01  1.883753995235E+01  1.906359043178E+01  1.929235351696E+01
  1.952386175916E+01  1.975814810027E+01  1.999524587748E+01  2.023518882801E+01
  2.047801109394E+01  2.072374722707E+01  2.097243219379E+01  2.122410138012E+01
  2.147879059668E+01  2.173653608384E+01  2.199737451685E+01  2.226134301105E+01
  2.252847912718E+01  2.279882087671E+01  2.307240672723E+01  2.334927560796E+01
  2.362946691525E+01  2.391302051823E+01  2.419997676445E+01  2.449037648563E+01
  2.478426100345E+01  2.508167213550E+01  2.538265220112E+01  2.568724402754E+01
  2.599549095587E+01  2.630743684734E+01  2.662312608950E+01  2.694260360258E+01
  2.726591484581E+01  2.759310582396E+01  2.792422309385E+01  2.825931377097E+01
  2.859842553622E+01  2.894160664266E+01  2.928890592237E+01  2.964037279344E+01
  2.999605726696E+01  3.035600995416E+01  3.072028207361E+01  3.108892545850E+01
  3.146199256400E+01  3.183953647477E+01  3.222161091246E+01  3.260827024341E+01
  3.299956948633E+01  3.339556432017E+01  3.379631109201E+01  3.420186682512E+01
  3.461228922702E+01  3.502763669774E+01  3.544796833812E+01  3.587334395817E+01
  3.630382408567E+01  3.673946997470E+01  3.718034361440E+01  3.762650773777E+01
  3.807802583062E+01  3.853496214059E+01  3.899738168628E+01  3.946535026651E+01
  3.993893446971E+01  4.041820168335E+01  4.090322010355E+01  4.139405874479E+01
  4.189078744973E+01  4.239347689912E+01  4.290219862191E+01  4.341702500538E+01
  4.393802930544E+01  4.446528565711E+01
</grid-data>
</grid>
<valence-charge total-charge="27" is-unscreening-charge="yes"
 rescaled-to-z-pseudo="no">
<radfunc>
<data npts="458">
  7.255400412452E+00  7.255766483362E+00  7.256860712806E+00  7.258686130853E+00
  7.261364537687E+00  7.264782398786E+00  7.269139996619E+00  7.274133778570E+00
  7.279756449287E+00  7.286327713262E+00  7.293759089234E+00  7.301873814527E+00
  7.311745391109E+00  7.322146745787E+00  7.332648416110E+00  7.344905416950E+00
  7.359266328008E+00  7.373157883239E+00  7.389142129233E+00  7.407628345324E+00
  7.429137744043E+00  7.448966822231E+00  7.471590516151E+00  7.497547624028E+00
  7.527510468501E+00  7.562321450474E+00  7.603039484887E+00  7.638244768320E+00
  7.678203847295E+00  7.723735770412E+00  7.775815972764E+00  7.835605685547E+00
  7.904486271327E+00  7.984099080450E+00  8.076391413222E+00  8.183669122990E+00
  8.308656291465E+00  8.454562229553E+00  8.565290117371E+00  8.688248475825E+00
  8.824846494043E+00  8.976642987463E+00  9.145358505692E+00  9.332887572222E+00
  9.541310833561E+00  9.772906836094E+00  1.003016308058E+01  1.031578592604E+01
  1.063270882666E+01  1.098409828712E+01  1.137335681375E+01  1.180412202286E+01
  1.228026094349E+01  1.280585842466E+01  1.338519842828E+01  1.402273686515E+01
  1.472306451842E+01  1.549085850515E+01  1.633082066363E+01  1.724760123245E+01
  1.824570622453E+01  1.932938701036E+01  2.050251083071E+01  2.176841128007E+01
  2.312971826136E+01  2.458816753156E+01  2.614439075930E+01  2.695900742988E+01
  2.779768801586E+01  2.866009725557E+01  2.954578583397E+01  3.045418236967E+01
  3.138458539799E+01  3.233615541625E+01  3.330790706513E+01  3.429870152790E+01
  3.530723923736E+01  3.633205298813E+01  3.737150156017E+01  3.842376396673E+01
  3.948683444746E+01  4.055851833397E+01  4.163642892121E+01  4.271798548318E+01
  4.380041257512E+01  4.488074076735E+01  4.595580895622E+01  4.702226839736E+01
  4.807658860276E+01  4.911506523811E+01  5.013383014844E+01  5.112886362926E+01
  5.209600904601E+01  5.303098988725E+01  5.392942931583E+01  5.478687225748E+01
  5.559881003795E+01  5.636070754716E+01  5.706803287308E+01  5.771628930828E+01
  5.830104958890E+01  5.881799217999E+01  5.926293937235E+01  5.963189690533E+01
  5.992109477819E+01  6.012702886025E+01  6.024650285832E+01  6.027667014950E+01
  6.021507494075E+01  6.005969217328E+01  5.980896555296E+01  5.946184305806E+01
  5.901780925464E+01  5.847691373942E+01  5.783979503160E+01  5.710769924954E+01
  5.628249293851E+01  5.536666946039E+01  5.436334841895E+01  5.327626767285E+01
  5.210976758508E+01  5.086876727046E+01  4.955873273146E+01  4.818563691560E+01
  4.675591188286E+01  4.527639343602E+01  4.375425873715E+01  4.219695760625E+01
  4.061213836785E+01  3.900756927431E+01  3.739105668420E+01  3.577036130625E+01
  3.415311392754E+01  3.254673212402E+01  3.095833949720E+01  2.939468898893E+01
  2.786209179326E+01  2.636635330815E+01  2.491271745026E+01  2.350582049329E+01
  2.214965538753E+01  2.084754727928E+01  1.960214068033E+01  1.841539844646E+01
  1.728861242033E+01  1.622242528766E+01  1.521686289742E+01  1.427137601917E+01
  1.338489026351E+01  1.255586268677E+01  1.178234344622E+01  1.106204077526E+01
  1.039238751363E+01  9.770607456736E+00  9.193779880606E+00  8.658900749498E+00
  8.162939314024E+00  7.702889049713E+00  7.275812155677E+00  6.878877117422E+00
  6.509389122171E+00  6.164813385219E+00  5.842791689122E+00  5.541152643023E+00
  5.257916329258E+00  4.991294113946E+00  4.739684456332E+00  4.501665560616E+00
  4.275985679346E+00  4.061551806978E+00  3.857417405653E+00  3.662769692840E+00
  3.476916902401E+00  3.299275815955E+00  3.129359757537E+00  2.966767156772E+00
  2.811170717210E+00  2.662307178394E+00  2.519967632114E+00  2.383988343936E+00
  2.254239372474E+00  2.130603646892E+00  2.012954251302E+00  1.901151246217E+00
  1.795045180243E+00  1.694475874887E+00  1.599273223899E+00  1.509257883499E+00
  1.424242143029E+00  1.344030935202E+00  1.268422967176E+00  1.197211951839E+00
  1.130188320188E+00  1.067142549973E+00  1.007869315411E+00  9.521681355471E-01
  8.998439567040E-01  8.507076462955E-01  8.045763971835E-01  7.612740357040E-01
  7.206312283004E-01  6.824855912688E-01  6.466817380797E-01  6.130713084559E-01
  5.815129681503E-01  5.518723570854E-01  5.240220012957E-01  4.978411983158E-01
  4.732158808231E-01  4.500384661505E-01  4.282077203890E-01  4.076286989484E-01
  3.882126959046E-01  3.698769988828E-01  3.525446233301E-01  3.361440534286E-01
  3.206089761340E-01  3.058780151962E-01  2.918944660211E-01  2.786060328280E-01
  2.659645693021E-01  2.539258239066E-01  2.424491908649E-01  2.314974677062E-01
  2.210366201632E-01  2.110355550888E-01  2.014659019524E-01  1.923018033692E-01
  1.835197150091E-01  1.750982151371E-01  1.670178239452E-01  1.592608327513E-01
  1.518111430635E-01  1.446541154405E-01  1.377764280182E-01  1.311659445176E-01
  1.248115915060E-01  1.187032446419E-01  1.128316236057E-01  1.071881953874E-01
  1.017650855879E-01  9.655499736978E-02  9.155113768749E-02  8.674715041798E-02
  8.213705601200E-02  7.771519728695E-02  7.347619098664E-02  6.941488474069E-02
  6.552631906546E-02  6.180569405979E-02  5.824834046189E-02  5.484969474742E-02
  5.160527796345E-02  4.851067800748E-02  4.556153507540E-02  4.275353001570E-02
  4.008237534005E-02  3.754380865203E-02  3.513358826447E-02  3.284749079492E-02
  3.068131050414E-02  2.863086020058E-02  2.669197349427E-02  2.486050820916E-02
  2.313235076495E-02  2.150342134461E-02  1.996967967083E-02  1.852713122163E-02
  1.717183372484E-02  1.589990378074E-02  1.470752347425E-02  1.359094685035E-02
  1.254650614062E-02  1.157061764316E-02  1.065978717321E-02  9.810615017007E-03
  9.019800336498E-03  8.284144986735E-03  7.600556721864E-03  6.966051778109E-03
  6.377756833808E-03  5.832910356858E-03  5.328863358809E-03  4.863079582400E-03
  4.433135155437E-03  4.036717748774E-03  3.671625279638E-03  3.335764203965E-03
  3.027147442671E-03  2.743891987170E-03  2.484216228957E-03  2.246437056865E-03
  2.028966763856E-03  1.830309802879E-03  1.649059428735E-03  1.483894259919E-03
  1.333574791328E-03  1.196939885524E-03  1.072903267029E-03  9.604500408762E-04
  8.586332535312E-04  7.665705139114E-04  6.834406766919E-04  6.084806217943E-04
  5.409821228144E-04  4.802887536332E-04  4.257929912615E-04  3.769333677478E-04
  3.331917119367E-04  2.940905187742E-04  2.591904215437E-04  2.280877663888E-04
  2.004122908145E-04  1.758249048025E-04  1.540155731022E-04  1.347012970955E-04
  1.176241945053E-04  1.025496751256E-04  8.926471066819E-05  7.757619674358E-05
  6.730940491429E-05  5.830652267352E-05  5.042527910818E-05  4.353765390541E-05
  3.752866725578E-05  3.229524809836E-05  2.774517804585E-05  2.379610822498E-05
  2.037464617290E-05  1.741550984617E-05  1.486074572944E-05  1.265900797665E-05
  1.076489548105E-05  9.138343752503E-06  7.744068481138E-06  6.551057686028E-06
  5.532109385072E-06  4.663411776882E-06  3.924162995775E-06  3.296227585370E-06
  2.763826933090E-06  2.313261015115E-06  1.932658917218E-06  1.611755719504E-06
  1.341693460532E-06  1.114844026937E-06  9.246519468144E-07  7.654951973521E-07
  6.325622681502E-07  5.217438502253E-07  4.295376458248E-07  3.529649150875E-07
  2.894974915694E-07  2.369941092093E-07  1.936449880253E-07  1.579237244582E-07
  1.285456246577E-07  1.044317050774E-07  8.467766455556E-08  6.852720569655E-08
  5.534915101410E-08  4.461786115733E-08  3.589651887518E-08  2.882289346240E-08
  2.309724657741E-08  1.847208184317E-08  1.474347786108E-08  1.174377750508E-08
  9.335435939315E-09  7.405856026684E-09  5.863062966861E-09  4.632090406800E-09
  3.651968173692E-09  2.873217444152E-09  2.255772819965E-09  1.767262649201E-09
  1.381589213047E-09  1.077759277646E-09  8.389231539465E-10  6.515869687556E-10
  5.049684631698E-10  3.904714226312E-10  3.012579149937E-10  2.319009659103E-10
  1.781032200873E-10  1.364695977397E-10  1.043240238630E-10  7.956204128860E-11
  6.053256695725E-11  4.594325778749E-11  3.478495533500E-11  2.627150929884E-11
  1.979196637142E-11  1.487267646240E-11  1.114733294442E-11  8.333344214421E-12
  6.213244849985E-12  4.620108008830E-12  3.426126578224E-12  2.533697380122E-12
  1.868477508828E-12  1.373990481595E-12  1.007447169471E-12  7.365164891335E-13
  5.368360327790E-13  3.529778816801E-13  2.561373995469E-13  1.852834053124E-13
  1.335994388907E-13  5.972067616649E-15  3.984435394138E-15  2.646204888494E-15
  1.749326885965E-15  1.151026253276E-15  7.537752567458E-16  4.912654836553E-16
  3.186275968193E-16  2.056449347371E-16  1.320670750654E-16  8.438924931882E-17
  5.364997186624E-17  3.393244426066E-17  2.134996735374E-17  1.336252166753E-17
  8.318812410695E-18  5.150961211974E-18  3.172058235154E-18  1.942636019667E-18
  1.183069560934E-18  7.164212850837E-19  4.313566345830E-19  2.582167291019E-19
  1.536674516123E-19  9.090722201066E-20  5.345678821130E-20  3.124380617287E-20
  1.814888071864E-20  1.047679517172E-20  6.009899703029E-21  3.425573057869E-21
  1.939961713050E-21  1.091473682831E-21  6.100415593064E-22  3.386858548915E-22
  1.867631475517E-22  1.022836832970E-22  5.562969302619E-23  3.004385543367E-23
  1.611076617479E-23  8.577316893699E-24  0.000000000000E+00  0.000000000000E+00
  0.000000000000E+00  0.000000000000E+00  0.000000000000E+00  0.000000000000E+00
  0.000000000000E+00  0.000000000000E+00
</data>
</radfunc>
</valence-charge>
<pseudocore-charge matching-radius="0.636441712057"
 number-of-continuous-derivatives="4">
<annotation model-charge-form="Teter function with specified parameters" />
<radfunc>
<data npts="291">
  3.108624957236E+02  3.108294962238E+02  3.107308574223E+02  3.105663200205E+02
  3.103249480480E+02  3.100170714734E+02  3.096248571644E+02  3.091759722626E+02
  3.086715480616E+02  3.080837091677E+02  3.074216298670E+02  3.067026153117E+02
  3.058345078770E+02  3.049288680562E+02  3.040251871447E+02  3.029855509150E+02
  3.017900569904E+02  3.006585142727E+02  2.993883738249E+02  2.979633362671E+02
  2.963653670806E+02  2.949491712480E+02  2.933984910969E+02  2.917013588604E+02
  2.898449101248E+02  2.878153531771E+02  2.855979463385E+02  2.838022042124E+02
  2.818850029359E+02  2.798390623059E+02  2.776568096603E+02  2.753303919919E+02
  2.728516931942E+02  2.702123572575E+02  2.674038183175E+02  2.644173385431E+02
  2.612440549313E+02  2.578750361548E+02  2.555158689084E+02  2.530631068242E+02
  2.505141474087E+02  2.478664293141E+02  2.451174471066E+02  2.422647674801E+02
  2.393060469841E+02  2.362390513363E+02  2.330616763783E+02  2.297719707295E+02
  2.263681601799E+02  2.228486738514E+02  2.192121721402E+02  2.154575764333E+02
  2.115841005679E+02  2.075912839776E+02  2.034790264350E+02  1.992476242642E+02
  1.948978078565E+02  1.904307802748E+02  1.858482566786E+02  1.811525042458E+02
  1.763463822013E+02  1.714333814954E+02  1.664176635981E+02  1.613040978000E+02
  1.560982963236E+02  1.508066464675E+02  1.454363389179E+02  1.427241611785E+02
  1.399953912771E+02  1.372511635292E+02  1.344926657771E+02  1.317211395472E+02
  1.289378800708E+02  1.261442361603E+02  1.233416099290E+02  1.205314563465E+02
  1.177152826186E+02  1.148946473825E+02  1.120711597065E+02  1.092464778856E+02
  1.064223080231E+02  1.036004023883E+02  1.007825575432E+02  9.797061222781E+01
  9.516644499783E+01  9.237197160735E+01  8.958914212980E+01  8.681993781224E+01
  8.406636765868E+01  8.133046473901E+01  7.861428222206E+01  7.591988913210E+01
  7.324936583008E+01  7.060479922254E+01  6.798827770290E+01  6.540188583192E+01
  6.284769876623E+01  6.032777644620E+01  5.784415755659E+01  5.539885327638E+01
  5.299384083627E+01  5.063105690556E+01  4.831239083265E+01  4.603967776643E+01
  4.381469168860E+01  4.163913839004E+01  3.951464842723E+01  3.744277009750E+01
  3.542496247475E+01  3.346258855011E+01  3.155690852413E+01  2.970907329985E+01
  2.792011822786E+01  2.619095715632E+01  2.452237684025E+01  2.291503176559E+01
  2.136943944375E+01  1.988597623269E+01  1.846487373990E+01  1.710621586140E+01
  1.580993650923E+01  1.457581807723E+01  1.340349069168E+01  1.229243228919E+01
  1.124196955945E+01  1.025127978466E+01  9.319393601032E+00  8.445198700067E+00
  7.627444479635E+00  6.864747645506E+00  6.155598754633E+00  5.498369681126E+00
  4.891321975094E+00  4.332616073329E+00  3.820321309305E+00  3.352426658361E+00
  2.926852142319E+00  2.541460806485E+00  2.194071171011E+00  1.882470048406E+00
  1.604425609575E+00  1.357700572560E+00  1.140065381309E+00  9.493112365351E-01
  7.832628373276E-01  6.397906908258E-01  5.168228481309E-01  4.123559279216E-01
  3.244652950253E-01  2.513142695835E-01  1.911622534433E-01  1.423716739778E-01
  1.034136615667E-01  7.287239529894E-02  4.944807181992E-02  3.195847433473E-02
  1.933914218166E-02  1.064216565264E-02  5.033655324409E-03  1.789959497165E-03
  2.927267940690E-04  2.293290970603E-05  5.540102576949E-04  1.544236221984E-03
  2.728549267181E-03  3.909971778622E-03  4.950823739581E-03  5.763911881286E-03
  6.303874567356E-03  6.558853359678E-03  6.542648090294E-03  6.287493646581E-03
  5.837574060977E-03  5.243363555462E-03  4.556855762016E-03  3.827712400474E-03
  3.100332329025E-03  2.411812240644E-03  1.790742528899E-03  1.256757119641E-03
  8.207353971778E-04  4.855386275574E-04  2.471531729067E-04  9.610871825514E-05
  1.904182126439E-05  2.831538002649E-07  2.336031710107E-05  7.232625453959E-05
  1.328449576318E-04  1.929900422396E-04  2.437363976704E-04  2.791489609736E-04
  2.962942665367E-04  2.949184405389E-04  2.769486735904E-04  2.458831722725E-04
  2.061368237332E-04  1.624064102814E-04  1.191107304344E-04  7.994837567120E-05
  4.760047099712E-05  2.358893370845E-05  8.284353752681E-06  1.043009394055E-06
  4.411529556716E-07  4.567535078657E-06  1.133272819191E-05  1.875618692023E-05
  2.519864259826E-05  2.951739138435E-05  3.113395390462E-05  3.001590381142E-05
  2.658581099305E-05  2.157883414265E-05  1.587550669634E-05  1.033717835186E-05
  5.668473631036E-06  2.324658311617E-06  4.730976281133E-07  0.000000000000E+00
  0.000000000000E+00  0.000000000000E+00  0.000000000000E+00  0.000000000000E+00
  0.000000000000E+00  0.000000000000E+00  0.000000000000E+00  0.000000000000E+00
  0.000000000000E+00  0.000000000000E+00  0.000000000000E+00  0.000000000000E+00
  0.000000000000E+00  0.000000000000E+00  0.000000000000E+00  0.000000000000E+00
  0.000000000000E+00  0.000000000000E+00  0.000000000000E+00  0.000000000000E+00
  0.000000000000E+00  0.000000000000E+00  0.000000000000E+00  0.000000000000E+00
  0.000000000000E+00  0.000000000000E+00  0.000000000000E+00  0.000000000000E+00
  0.000000000000E+00  0.000000000000E+00  0.000000000000E+00  0.000000000000E+00
  0.000000000000E+00  0.000000000000E+00  0.000000000000E+00  0.000000000000E+00
  0.000000000000E+00  0.000000000000E+00  0.000000000000E+00  0.000000000000E+00
  0.000000000000E+00  0.000000000000E+00  0.000000000000E+00  0.000000000000E+00
  0.000000000000E+00  0.000000000000E+00  0.000000000000E+00  0.000000000000E+00
  0.000000000000E+00  0.000000000000E+00  0.000000000000E+00  0.000000000000E+00
  0.000000000000E+00  0.000000000000E+00  0.000000000000E+00  0.000000000000E+00
  0.000000000000E+00  0.000000000000E+00  0.000000000000E+00  0.000000000000E+00
  0.000000000000E+00  0.000000000000E+00  0.000000000000E+00  0.000000000000E+00
  0.000000000000E+00  0.000000000000E+00  0.000000000000E+00  0.000000000000E+00
  0.000000000000E+00  0.000000000000E+00  0.000000000000E+00
</data>
</radfunc>
</pseudocore-charge>
<semilocal-potentials set="scalar_relativistic">
<slps n="5" l="s" rc="2.30809662393">
<radfunc>
<data npts="291">
 -2.979569892523E+01 -2.979574027094E+01 -2.979586382905E+01 -2.979606994494E+01
 -2.979637234647E+01 -2.979675813058E+01 -2.979724969747E+01 -2.979781243507E+01
 -2.979844498631E+01 -2.979918239543E+01 -2.980001327047E+01 -2.980091600760E+01
 -2.980200651712E+01 -2.980314486967E+01 -2.980428148251E+01 -2.980559000482E+01
 -2.980709592128E+01 -2.980852250867E+01 -2.981012527327E+01 -2.981192532975E+01
 -2.981394613945E+01 -2.981573911591E+01 -2.981770453471E+01 -2.981985814014E+01
 -2.982221689556E+01 -2.982479900621E+01 -2.982762391075E+01 -2.982991428327E+01
 -2.983236189631E+01 -2.983497612850E+01 -2.983776656846E+01 -2.984074290858E+01
 -2.984391479727E+01 -2.984729163709E+01 -2.985088231297E+01 -2.985469483024E+01
 -2.985873583742E+01 -2.986301000228E+01 -2.986599004924E+01 -2.986907429557E+01
 -2.987226148312E+01 -2.987554923792E+01 -2.987893383999E+01 -2.988240995487E+01
 -2.988597032173E+01 -2.988960539204E+01 -2.989330291301E+01 -2.989704744905E+01
 -2.990081983462E+01 -2.990459655159E+01 -2.990834902438E+01 -2.991204282668E+01
 -2.991563679407E+01 -2.991908203859E+01 -2.992232086291E+01 -2.992528557473E+01
 -2.992789720549E+01 -2.993006414232E+01 -2.993168068781E+01 -2.993262556924E+01
 -2.993276042657E+01 -2.993192831714E+01 -2.992995228301E+01 -2.992663403423E+01
 -2.992175280514E+01 -2.991506444047E+01 -2.990630076025E+01 -2.990105021506E+01
 -2.989516923608E+01 -2.988861745194E+01 -2.988135298497E+01 -2.987333246604E+01
 -2.986451105199E+01 -2.985484244510E+01 -2.984427891348E+01 -2.983277131117E+01
 -2.982026909731E+01 -2.980672035305E+01 -2.979207179582E+01 -2.977626879030E+01
 -2.975925535593E+01 -2.974097417154E+01 -2.972136657774E+01 -2.970037257856E+01
 -2.967793084439E+01 -2.965397871889E+01 -2.962845223294E+01 -2.960128612961E+01
 -2.957241390419E+01 -2.954176786419E+01 -2.950927921400E+01 -2.947487816963E+01
 -2.943849410885E+01 -2.940005576180E+01 -2.935949144742E+01 -2.931672936019E+01
 -2.927169791124E+01 -2.922432612673E+01 -2.917454410482E+01 -2.912228353069E+01
 -2.906747824634E+01 -2.901006486880E+01 -2.894998344684E+01 -2.888717814253E+01
 -2.882159791993E+01 -2.875319722011E+01 -2.868193659875E+01 -2.860778330152E+01
 -2.853071175243E+01 -2.845070393250E+01 -2.836774963018E+01 -2.828184655027E+01
 -2.819300027546E+01 -2.810122408155E+01 -2.800653861503E+01 -2.790897144769E+01
 -2.780855652740E+01 -2.770533354649E+01 -2.759934724845E+01 -2.749064669157E+01
 -2.737928448288E+01 -2.726531599066E+01 -2.714879853710E+01 -2.702979056781E+01
 -2.690835079049E+01 -2.678453727395E+01 -2.665840649980E+01 -2.653001236398E+01
 -2.639940513361E+01 -2.626663037637E+01 -2.613172789446E+01 -2.599473071183E+01
 -2.585566418148E+01 -2.571454529557E+01 -2.557138229339E+01 -2.542617466687E+01
 -2.527891365554E+01 -2.512958330027E+01 -2.497816208265E+01 -2.482462511555E+01
 -2.466894677127E+01 -2.451110354465E+01 -2.435107686202E+01 -2.418885547980E+01
 -2.402443709039E+01 -2.385782878843E+01 -2.368904616533E+01 -2.351811100275E+01