Ta    ONCVPSP-3.3.0  r_core=   2.30810   1.86211   2.07314   1.61376
73.0000     27.0000      180507    zatom,zion,pspd
8      11   3     4   600     0    pspcod,pspxc,lmax,lloc,mmax,r2well
5.99000000  5.00000000  0.00000000    rchrg fchrg qchrg
2     4     4     2    nproj
3     1           extension_switch
4     4     3    nprojso
0                         9.2885018157973D-01  4.5878935270887D+00
1  0.0000000000000D+00 -3.4531648374081D-12  4.9343862329465D-13
2  1.0000000000000D-02 -1.8362517849600D-03  4.5637768198955D-02
3  2.0000000000000D-02 -3.6625589930632D-03  9.1224649412085D-02
4  3.0000000000000D-02 -5.4689465043739D-03  1.3670981187417D-01
5  4.0000000000000D-02 -7.2453783496732D-03  1.8204253423965D-01
6  5.0000000000000D-02 -8.9817278771337D-03  2.2717226073831D-01
7  6.0000000000000D-02 -1.0667748626149D-02  2.7204865626588D-01
8  7.0000000000000D-02 -1.2293046139993D-02  3.1662166138691D-01
9  8.0000000000000D-02 -1.3847050945535D-02  3.6084154722745D-01
10  9.0000000000000D-02 -1.5318992923909D-02  4.0465897023388D-01
11  1.0000000000000D-01 -1.6697877290900D-02  4.4802502677387D-01
12  1.1000000000000D-01 -1.7972462399783D-02  4.9089130755441D-01
13  1.2000000000000D-01 -1.9131239572522D-02  5.3320995183096D-01
14  1.3000000000000D-01 -2.0162415157601D-02  5.7493370138069D-01
15  1.4000000000000D-01 -2.1053895004244D-02  6.1601595421140D-01
16  1.5000000000000D-01 -2.1793271533572D-02  6.5641081797667D-01
17  1.6000000000000D-01 -2.2367813577156D-02  6.9607316306599D-01
18  1.7000000000000D-01 -2.2764459142625D-02  7.3495867533734D-01
19  1.8000000000000D-01 -2.2969811254469D-02  7.7302390845788D-01
20  1.9000000000000D-01 -2.2970137005857D-02  8.1022633581654D-01
21  2.0000000000000D-01 -2.2751369944330D-02  8.4652440197064D-01
22  2.1000000000000D-01 -2.2299115900614D-02  8.8187757358633D-01
23  2.2000000000000D-01 -2.1598662355486D-02  9.1624638983090D-01
24  2.3000000000000D-01 -2.0634991424739D-02  9.4959251217244D-01
25  2.4000000000000D-01 -1.9392796526797D-02  9.8187877354044D-01
26  2.5000000000000D-01 -1.7856502781597D-02  1.0130692267981D+00
27  2.6000000000000D-01 -1.6010291172757D-02  1.0431291924750D+00
28  2.7000000000000D-01 -1.3838126488148D-02  1.0720253057067D+00
29  2.8000000000000D-01 -1.1323789036593D-02  1.0997255623236D+00
30  2.9000000000000D-01 -8.4509101207428D-03  1.1261993640309D+00
31  3.0000000000000D-01 -5.2030112280245D-03  1.1514175626183D+00
32  3.1000000000000D-01 -1.5635468834429D-03  1.1753525031334D+00
33  3.2000000000000D-01  2.4840489106133D-03  1.1979780659537D+00
34  3.3000000000000D-01  6.9563127409268D-03  1.2192697076858D+00
35  3.4000000000000D-01  1.1869698468394D-02  1.2392045008210D+00
36  3.5000000000000D-01  1.7240520662174D-02  1.2577611720708D+00
37  3.6000000000000D-01  2.3084894932275D-02  1.2749201393062D+00
38  3.7000000000000D-01  2.9418675328430D-02  1.2906635470204D+00
39  3.8000000000000D-01  3.6257388991278D-02  1.3049753002322D+00
40  3.9000000000000D-01  4.3616168259837D-02  1.3178410967466D+00
41  4.0000000000000D-01  5.1509680456797D-02  1.3292484576852D+00
42  4.1000000000000D-01  5.9952055590324D-02  1.3391867561983D+00
43  4.2000000000000D-01  6.8956812227646D-02  1.3476472442687D+00
44  4.3000000000000D-01  7.8536781811689D-02  1.3546230775152D+00
45  4.4000000000000D-01  8.8704031707171D-02  1.3601093379024D+00
46  4.5000000000000D-01  9.9469787277342D-02  1.3641030542637D+00
47  4.6000000000000D-01  1.1084435330587D-01  1.3666032205419D+00
48  4.7000000000000D-01  1.2283703509129D-01  1.3676108116522D+00
49  4.8000000000000D-01  1.3545605955296D-01  1.3671287968726D+00
50  4.9000000000000D-01  1.4870849669823D-01  1.3651621506659D+00
51  5.0000000000000D-01  1.6260018180949D-01  1.3617178608392D+00
52  5.1000000000000D-01  1.7713563871841D-01  1.3568049339471D+00
53  5.2000000000000D-01  1.9231800454103D-01  1.3504343978456D+00
54  5.3000000000000D-01  2.0814895625296D-01  1.3426193013080D+00
55  5.4000000000000D-01  2.2462863948783D-01  1.3333747106124D+00
56  5.5000000000000D-01  2.4175559994447D-01  1.3227177030177D+00
57  5.6000000000000D-01  2.5952671778913D-01  1.3106673570436D+00
58  5.7000000000000D-01  2.7793714543824D-01  1.2972447394782D+00
59  5.8000000000000D-01  2.9698024910465D-01  1.2824728890372D+00
60  5.9000000000000D-01  3.1664755448614D-01  1.2663767966068D+00
61  6.0000000000000D-01  3.3692869696890D-01  1.2489833820047D+00
62  6.1000000000000D-01  3.5781137671095D-01  1.2303214672012D+00
63  6.2000000000000D-01  3.7928131896103D-01  1.2104217459495D+00
64  6.3000000000000D-01  4.0132223995688D-01  1.1893167497778D+00
65  6.4000000000000D-01  4.2391581873392D-01  1.1670408103072D+00
66  6.5000000000000D-01  4.4704167516014D-01  1.1436300178648D+00
67  6.6000000000000D-01  4.7067735449632D-01  1.1191221763707D+00
68  6.7000000000000D-01  4.9479831876224D-01  1.0935567544861D+00
69  6.8000000000000D-01  5.1937794516904D-01  1.0669748330199D+00
70  6.9000000000000D-01  5.4438753185621D-01  1.0394190486008D+00
71  7.0000000000000D-01  5.6979631114768D-01  1.0109335336308D+00
72  7.1000000000000D-01  5.9557147051682D-01  9.8156385255004D-01
73  7.2000000000000D-01  6.2167818142263D-01  9.5135693445028D-01
74  7.3000000000000D-01  6.4807963615226D-01  9.2036100208899D-01
75  7.4000000000000D-01  6.7473709277446D-01  8.8862549736582D-01
76  7.5000000000000D-01  7.0160992827847D-01  8.5620100333643D-01
77  7.6000000000000D-01  7.2865569994060D-01  8.2313916285071D-01
78  7.7000000000000D-01  7.5583021492795D-01  7.8949259391517D-01
79  7.8000000000000D-01  7.8308760811455D-01  7.5531480189185D-01
80  7.9000000000000D-01  8.1038042805083D-01  7.2066008865920D-01
81  8.0000000000000D-01  8.3765973099172D-01  6.8558345887330D-01
82  8.1000000000000D-01  8.6487518285287D-01  6.5014052348063D-01
83  8.2000000000000D-01  8.9197516892836D-01  6.1438740064663D-01
84  8.3000000000000D-01  9.1890691116651D-01  5.7838061427712D-01
85  8.4000000000000D-01  9.4561659276414D-01  5.4217699032217D-01
86  8.5000000000000D-01  9.7204948980312D-01  5.0583355106471D-01
87  8.6000000000000D-01  9.9815010961685D-01  4.6940740760789D-01
88  8.7000000000000D-01  1.0238623355386D+00  4.3295565078745D-01
89  8.8000000000000D-01  1.0491295776485D+00  3.9653524074662D-01
90  8.9000000000000D-01  1.0738949291019D+00  3.6020289542166D-01
91  9.0000000000000D-01  1.0981013275877D+00  3.2401497819726D-01
92  9.1000000000000D-01  1.1216917214343D+00  2.8802738499996D-01
93  9.2000000000000D-01  1.1446092398480D+00  2.5229543110780D-01
94  9.3000000000000D-01  1.1667973667413D+00  2.1687373796209D-01
95  9.4000000000000D-01  1.1882001175785D+00  1.8181612027528D-01
96  9.5000000000000D-01  1.2087622186422D+00  1.4717547373580D-01
97  9.6000000000000D-01  1.2284292880977D+00  1.1300366361636D-01
98  9.7000000000000D-01  1.2471480182118D+00  7.9351414597601D-02
99  9.8000000000000D-01  1.2648663580628D+00  4.6268202122940D-02
100  9.9000000000000D-01  1.2815336960603D+00  1.3802145603301D-02
101  1.0000000000000D+00  1.2971010415775D+00 -1.8000096207269D-02
102  1.0100000000000D+00  1.3115212049888D+00 -4.9093427343512D-02
103  1.0200000000000D+00  1.3247489753943D+00 -7.9434413946900D-02
104  1.0300000000000D+00  1.3367412953048D+00 -1.0898138044959D-01
105  1.0400000000000D+00  1.3474574315592D+00 -1.3769450230695D-01
106  1.0500000000000D+00  1.3568591417448D+00 -1.6553589496516D-01
107  1.0600000000000D+00  1.3649108353896D+00 -1.9246969875506D-01
108  1.0700000000000D+00  1.3715797292076D+00 -2.1846215941050D-01
109  1.0800000000000D+00  1.3768359956779D+00 -2.4348170391556D-01
110  1.0900000000000D+00  1.3806529042573D+00 -2.6749901139514D-01
111  1.1000000000000D+00  1.3830069545345D+00 -2.9048707877249D-01
112  1.1100000000000D+00  1.3838780006563D+00 -3.1242128092901D-01
113  1.1200000000000D+00  1.3832493663737D+00 -3.3327942511325D-01
114  1.1300000000000D+00  1.3811079500784D+00 -3.5304179935959D-01
115  1.1400000000000D+00  1.3774443192312D+00 -3.7169121469253D-01
116  1.1500000000000D+00  1.3722527936105D+00 -3.8921304090802D-01
117  1.1600000000000D+00  1.3655315168398D+00 -4.0559523573889D-01
118  1.1700000000000D+00  1.3572825156896D+00 -4.2082836722942D-01
119  1.1800000000000D+00  1.3475117466872D+00 -4.3490562916401D-01
120  1.1900000000000D+00  1.3362291296131D+00 -4.4782284941590D-01
121  1.2000000000000D+00  1.3234485674874D+00 -4.5957849109465D-01
122  1.2100000000000D+00  1.3091879527153D+00 -4.7017364640141D-01
123  1.2200000000000D+00  1.2934691590972D+00 -4.7961202311968D-01
124  1.2300000000000D+00  1.2763180194570D+00 -4.8789992368883D-01
125  1.2400000000000D+00  1.2577642886854D+00 -4.9504621683027D-01
126  1.2500000000000D+00  1.2378415920658D+00 -5.0106230172680D-01
127  1.2600000000000D+00  1.2165873587896D+00 -5.0596206477314D-01
128  1.2700000000000D+00  1.1940427406038D+00 -5.0976182893264D-01
129  1.2800000000000D+00  1.1702525156296D+00 -5.1248029577706D-01
130  1.2900000000000D+00  1.1452649774180D+00 -5.1413848029788D-01
131  1.3000000000000D+00  1.1191318093409D+00 -5.1475963859300D-01
132  1.3100000000000D+00  1.0919079445339D+00 -5.1436918858220D-01
133  1.3200000000000D+00  1.0636514116076D+00 -5.1299462390572D-01
134  1.3300000000000D+00  1.0344231663958D+00 -5.1066542118263D-01
135  1.3400000000000D+00  1.0042869101259D+00 -5.0741294085433D-01
136  1.3500000000000D+00  9.7330889436469D-01 -5.0327032182574D-01
137  1.3600000000000D+00  9.4155771318960D-01 -4.9827237015715D-01
138  1.3700000000000D+00  9.0910408312016D-01 -4.9245544209390D-01
139  1.3800000000000D+00  8.7602061127917D-01 -4.8585732169561D-01
140  1.3900000000000D+00  8.4238155243501D-01 -4.7851709340009D-01
141  1.4000000000000D+00  8.0826255553485D-01 -4.7047500983978D-01
142  1.4100000000000D+00  7.7374040037018D-01 -4.6177235524241D-01
143  1.4200000000000D+00  7.3889272515194D-01 -4.5245130480028D-01
144  1.4300000000000D+00  7.0379774566708D-01 -4.4255478035157D-01
145  1.4400000000000D+00  6.6853396685185D-01 -4.3212630278087D-01
146  1.4500000000000D+00  6.3317988757193D-01 -4.2120984152702D-01
147  1.4600000000000D+00  5.9781369942521D-01 -4.0984966159841D-01
148  1.4700000000000D+00  5.6251298047441D-01 -3.9809016852599D-01
149  1.4800000000000D+00  5.2735438472638D-01 -3.8597575165475D-01
150  1.4900000000000D+00  4.9241332830895D-01 -3.7355062621814D-01
151  1.5000000000000D+00  4.5776367320887D-01 -3.6085867461030D-01
152  1.5100000000000D+00  4.2347740951313D-01 -3.4794328729807D-01
153  1.5200000000000D+00  3.8962433704921D-01 -3.3484720379157D-01
154  1.5300000000000D+00  3.5627174737229D-01 -3.2161235412057D-01
155  1.5400000000000D+00  3.2348410696870D-01 -3.0827970121371D-01
156  1.5500000000000D+00  2.9132274265242D-01 -2.9488908464225D-01
157  1.5600000000000D+00  2.5984552792561D-01 -2.8147906551492D-01
158  1.5700000000000D+00  2.2910658151192D-01 -2.6808677588025D-01
159  1.5800000000000D+00  1.9915594545088D-01 -2.5474776329849D-01
160  1.5900000000000D+00  1.7003934069231D-01 -2.4149585980499D-01
161  1.6000000000000D+00  1.4179792303274D-01 -2.2836305062840D-01
162  1.6100000000000D+00  1.1446755102412D-01 -2.1537920728570D-01
163  1.6200000000000D+00  8.8079089033627D-02 -2.0257211703651D-01
164  1.6300000000000D+00  6.2659432749927D-02 -1.8996771199147D-01
165  1.6400000000000D+00  3.8232264660638D-02 -1.7759025306511D-01
166  1.6500000000000D+00  1.4819261097267D-02 -1.6546265948530D-01
167  1.6600000000000D+00 -7.5598266615621D-03 -1.5360652311134D-01
168  1.6700000000000D+00 -2.8887650678708D-02 -1.4204197633342D-01
169  1.6800000000000D+00 -4.9149225185613D-02 -1.3078770133034D-01
170  1.6900000000000D+00 -6.8331982644290D-02 -1.1986091385546D-01
171  1.7000000000000D+00 -8.6425843384927D-02 -1.0927734534348D-01
172  1.7100000000000D+00 -1.0342326334612D-01 -9.9051232195855D-02
173  1.7200000000000D+00 -1.1931927520700D-01 -8.9195308407404D-02
174  1.7300000000000D+00 -1.3411151718577D-01 -7.9720802998569D-02
175  1.7400000000000D+00 -1.4780025274706D-01 -7.0637441400058D-02
176  1.7500000000000D+00 -1.6038838031739D-01 -6.1953451001806D-02
177  1.7600000000000D+00 -1.7188143248929D-01 -5.3675571049235D-02
178  1.7700000000000D+00 -1.8228756530081D-01 -4.5809066669501D-02
179  1.7800000000000D+00 -1.9161753748616D-01 -3.8357747066881D-02
180  1.7900000000000D+00 -1.9988467991671D-01 -3.1323987784847D-02
181  1.8000000000000D+00 -2.0710485538495D-01 -2.4708756966819D-02
182  1.8100000000000D+00 -2.1329640885293D-01 -1.8511645559178D-02
183  1.8200000000000D+00 -2.1848010860216D-01 -1.2730901266390D-02
184  1.8300000000000D+00 -2.2267907822330D-01 -7.3634662795565D-03
185  1.8400000000000D+00 -2.2591872021193D-01 -2.4050184490013D-03
186  1.8500000000000D+00 -2.2822663090533D-01  2.1499839916178D-03
187  1.8600000000000D+00 -2.2963250782750D-01  6.3082546065205D-03
188  1.8700000000000D+00 -2.3016804905806D-01  1.0077627686861D-02
189  1.8800000000000D+00 -2.2986684576357D-01  1.3467004413885D-02
190  1.8900000000000D+00 -2.2876426772962D-01  1.6486296193637D-02
191  1.9000000000000D+00 -2.2689734275497D-01  1.9146365531467D-02
192  1.9100000000000D+00 -2.2430463015924D-01  2.1458964558892D-02
193  1.9200000000000D+00 -2.2102608893306D-01  2.3436671440770D-02
194  1.9300000000000D+00 -2.1710294114266D-01  2.5092824925965D-02
195  1.9400000000000D+00 -2.1257753088009D-01  2.6441457171814D-02
196  1.9500000000000D+00 -2.0749317956907D-01  2.7497225184388D-02
197  1.9600000000000D+00 -2.0189403787443D-01  2.8275340991784D-02
198  1.9700000000000D+00 -1.9582493497061D-01  2.8791500864758D-02
199  1.9800000000000D+00 -1.8933122560282D-01  2.9061813780722D-02
200  1.9900000000000D+00 -1.8245863550576D-01  2.9102729368038D-02
201  2.0000000000000D+00 -1.7525310573740D-01  2.8930965570455D-02
202  2.0100000000000D+00 -1.6776063650800D-01  2.8563436286277D-02
203  2.0200000000000D+00 -1.6002713089858D-01  2.8017179137858D-02
204  2.0300000000000D+00 -1.5209823927832D-01  2.7309283735907D-02
205  2.0400000000000D+00 -1.4401920462301D-01  2.6456820505597D-02
206  2.0500000000000D+00 -1.3583470952542D-01  2.5476770425069D-02
207  2.0600000000000D+00 -1.2758872533458D-01  2.4385955858227D-02
208  2.0700000000000D+00 -1.1932436371593D-01  2.3200972596895D-02
209  2.0800000000000D+00 -1.1108373164211D-01  2.1938123559907D-02
210  2.0900000000000D+00 -1.0290778959731D-01  2.0613354031214D-02
211  2.1000000000000D+00 -9.4836214116321D-02  1.9242188932674D-02
212  2.1100000000000D+00 -8.6907264762245D-02  1.7839672163012D-02
213  2.1200000000000D+00 -7.9157655815056D-02  1.6420308111560D-02
214  2.1300000000000D+00 -7.1622433802968D-02  1.4998005841985D-02
215  2.1400000000000D+00 -6.4334860238638D-02  1.3586025648264D-02
216  2.1500000000000D+00 -5.7326300926530D-02  1.2196928578914D-02
217  2.1600000000000D+00 -5.0626121741579D-02  1.0842528874214D-02
218  2.1700000000000D+00 -4.4261590841192D-02  9.5338492908178D-03
219  2.1800000000000D+00 -3.8257788843622D-02  8.2810799743989D-03
220  2.1900000000000D+00 -3.2637525746871D-02  7.0935403390311D-03
221  2.2000000000000D+00 -2.7421266009198D-02  5.9796445608483D-03
222  2.2100000000000D+00 -2.2627061930887D-02  4.9468707380793D-03
223  2.2200000000000D+00 -1.8270494391515D-02  4.0017333079172D-03
224  2.2300000000000D+00 -1.4365806401572D-02  3.1500101572346D-03
225  2.2400000000000D+00 -1.0923589839859D-02  2.3962418943218D-03
226  2.2500000000000D+00 -7.9461517871300D-03  1.7427419019217D-03
227  2.2600000000000D+00 -5.4291117051869D-03  1.1898687330489D-03
228  2.2700000000000D+00 -3.3955666344535D-03  7.4345566260043D-04
229  2.2800000000000D+00 -1.8691322782415D-03  4.0896245262612D-04
230  2.2900000000000D+00 -8.6092005274373D-04  1.8884698018089D-04
231  2.3000000000000D+00 -2.7862811808736D-04  6.2253271998454D-05
232  2.3100000000000D+00 -1.2405155347299D-05  4.4523204767116D-06
233  2.3200000000000D+00  5.8167636370157D-05 -1.1444701146560D-05
234  2.3300000000000D+00  2.9456509500769D-05 -5.9801898491874D-06
235  2.3400000000000D+00 -1.1817803548313D-05  2.4458077409695D-06
236  2.3500000000000D+00 -2.1682373239207D-05  4.5123865305524D-06
237  2.3600000000000D+00 -8.1318155301011D-06  1.6974854728571D-06
238  2.3700000000000D+00  2.6248128205859D-06 -5.4071429933940D-07
239  2.3800000000000D+00  3.6715979934748D-06 -7.5898046786442D-07
240  2.3900000000000D+00  8.7695662362742D-07 -1.8174439883443D-07
241  2.4000000000000D+00  1.0379295199258D-07 -2.6735505755635D-08
242  2.4100000000000D+00  1.1559079335811D-07 -2.9774452521066D-08
243  2.4200000000000D+00  1.1812157943129D-08 -3.0426345008242D-09
244  2.4300000000000D+00  0.0000000000000D+00  0.0000000000000D+00
245  2.4400000000000D+00  0.0000000000000D+00  0.0000000000000D+00
246  2.4500000000000D+00  0.0000000000000D+00  0.0000000000000D+00
247  2.4600000000000D+00  0.0000000000000D+00  0.0000000000000D+00
248  2.4700000000000D+00  0.0000000000000D+00  0.0000000000000D+00
249  2.4800000000000D+00  0.0000000000000D+00  0.0000000000000D+00
250  2.4900000000000D+00  0.0000000000000D+00  0.0000000000000D+00
251  2.5000000000000D+00  0.0000000000000D+00  0.0000000000000D+00
252  2.5100000000000D+00  0.0000000000000D+00  0.0000000000000D+00
253  2.5200000000000D+00  0.0000000000000D+00  0.0000000000000D+00
254  2.5300000000000D+00  0.0000000000000D+00  0.0000000000000D+00
255  2.5400000000000D+00  0.0000000000000D+00  0.0000000000000D+00
256  2.5500000000000D+00  0.0000000000000D+00  0.0000000000000D+00
257  2.5600000000000D+00  0.0000000000000D+00  0.0000000000000D+00
258  2.5700000000000D+00  0.0000000000000D+00  0.0000000000000D+00
259  2.5800000000000D+00  0.0000000000000D+00  0.0000000000000D+00
260  2.5900000000000D+00  0.0000000000000D+00  0.0000000000000D+00
261  2.6000000000000D+00  0.0000000000000D+00  0.0000000000000D+00
262  2.6100000000000D+00  0.0000000000000D+00  0.0000000000000D+00
263  2.6200000000000D+00  0.0000000000000D+00  0.0000000000000D+00
264  2.6300000000000D+00  0.0000000000000D+00  0.0000000000000D+00
265  2.6400000000000D+00  0.0000000000000D+00  0.0000000000000D+00
266  2.6500000000000D+00  0.0000000000000D+00  0.0000000000000D+00
267  2.6600000000000D+00  0.0000000000000D+00  0.0000000000000D+00
268  2.6700000000000D+00  0.0000000000000D+00  0.0000000000000D+00
269  2.6800000000000D+00  0.0000000000000D+00  0.0000000000000D+00
270  2.6900000000000D+00  0.0000000000000D+00  0.0000000000000D+00
271  2.7000000000000D+00  0.0000000000000D+00  0.0000000000000D+00
272  2.7100000000000D+00  0.0000000000000D+00  0.0000000000000D+00
273  2.7200000000000D+00  0.0000000000000D+00  0.0000000000000D+00
274  2.7300000000000D+00  0.0000000000000D+00  0.0000000000000D+00
275  2.7400000000000D+00  0.0000000000000D+00  0.0000000000000D+00
276  2.7500000000000D+00  0.0000000000000D+00  0.0000000000000D+00
277  2.7600000000000D+00  0.0000000000000D+00  0.0000000000000D+00
278  2.7700000000000D+00  0.0000000000000D+00  0.0000000000000D+00
279  2.7800000000000D+00  0.0000000000000D+00  0.0000000000000D+00
280  2.7900000000000D+00  0.0000000000000D+00  0.0000000000000D+00
281  2.8000000000000D+00  0.0000000000000D+00  0.0000000000000D+00
282  2.8100000000000D+00  0.0000000000000D+00  0.0000000000000D+00
283  2.8200000000000D+00  0.0000000000000D+00  0.0000000000000D+00
284  2.8300000000000D+00  0.0000000000000D+00  0.0000000000000D+00
285  2.8400000000000D+00  0.0000000000000D+00  0.0000000000000D+00
286  2.8500000000000D+00  0.0000000000000D+00  0.0000000000000D+00
287  2.8600000000000D+00  0.0000000000000D+00  0.0000000000000D+00
288  2.8700000000000D+00  0.0000000000000D+00  0.0000000000000D+00
289  2.8800000000000D+00  0.0000000000000D+00  0.0000000000000D+00
290  2.8900000000000D+00  0.0000000000000D+00  0.0000000000000D+00
291  2.9000000000000D+00  0.0000000000000D+00  0.0000000000000D+00
292  2.9100000000000D+00  0.0000000000000D+00  0.0000000000000D+00
293  2.9200000000000D+00  0.0000000000000D+00  0.0000000000000D+00
294  2.9300000000000D+00  0.0000000000000D+00  0.0000000000000D+00
295  2.9400000000000D+00  0.0000000000000D+00  0.0000000000000D+00
296  2.9500000000000D+00  0.0000000000000D+00  0.0000000000000D+00
297  2.9600000000000D+00  0.0000000000000D+00  0.0000000000000D+00
298  2.9700000000000D+00  0.0000000000000D+00  0.0000000000000D+00
299  2.9800000000000D+00  0.0000000000000D+00  0.0000000000000D+00
300  2.9900000000000D+00  0.0000000000000D+00  0.0000000000000D+00
301  3.0000000000000D+00  0.0000000000000D+00  0.0000000000000D+00
302  3.0100000000000D+00  0.0000000000000D+00  0.0000000000000D+00
303  3.0200000000000D+00  0.0000000000000D+00  0.0000000000000D+00
304  3.0300000000000D+00  0.0000000000000D+00  0.0000000000000D+00
305  3.0400000000000D+00  0.0000000000000D+00  0.0000000000000D+00
306  3.0500000000000D+00  0.0000000000000D+00  0.0000000000000D+00
307  3.0600000000000D+00  0.0000000000000D+00  0.0000000000000D+00
308  3.0700000000000D+00  0.0000000000000D+00  0.0000000000000D+00
309  3.0800000000000D+00  0.0000000000000D+00  0.0000000000000D+00
310  3.0900000000000D+00  0.0000000000000D+00  0.0000000000000D+00
311  3.1000000000000D+00  0.0000000000000D+00  0.0000000000000D+00
312  3.1100000000000D+00  0.0000000000000D+00  0.0000000000000D+00
313  3.1200000000000D+00  0.0000000000000D+00  0.0000000000000D+00
314  3.1300000000000D+00  0.0000000000000D+00  0.0000000000000D+00
315  3.1400000000000D+00  0.0000000000000D+00  0.0000000000000D+00
316  3.1500000000000D+00  0.0000000000000D+00  0.0000000000000D+00
317  3.1600000000000D+00  0.0000000000000D+00  0.0000000000000D+00
318  3.1700000000000D+00  0.0000000000000D+00  0.0000000000000D+00
319  3.1800000000000D+00  0.0000000000000D+00  0.0000000000000D+00
320  3.1900000000000D+00  0.0000000000000D+00  0.0000000000000D+00
321  3.2000000000000D+00  0.0000000000000D+00  0.0000000000000D+00
322  3.2100000000000D+00  0.0000000000000D+00  0.0000000000000D+00
323  3.2200000000000D+00  0.0000000000000D+00  0.0000000000000D+00
324  3.2300000000000D+00  0.0000000000000D+00  0.0000000000000D+00
325  3.2400000000000D+00  0.0000000000000D+00  0.0000000000000D+00
326  3.2500000000000D+00  0.0000000000000D+00  0.0000000000000D+00
327  3.2600000000000D+00  0.0000000000000D+00  0.0000000000000D+00
328  3.2700000000000D+00  0.0000000000000D+00  0.0000000000000D+00
329  3.2800000000000D+00  0.0000000000000D+00  0.0000000000000D+00
330  3.2900000000000D+00  0.0000000000000D+00  0.0000000000000D+00
331  3.3000000000000D+00  0.0000000000000D+00  0.0000000000000D+00
332  3.3100000000000D+00  0.0000000000000D+00  0.0000000000000D+00
333  3.3200000000000D+00  0.0000000000000D+00  0.0000000000000D+00
334  3.3300000000000D+00  0.0000000000000D+00  0.0000000000000D+00
335  3.3400000000000D+00  0.0000000000000D+00  0.0000000000000D+00
336  3.3500000000000D+00  0.0000000000000D+00  0.0000000000000D+00
337  3.3600000000000D+00  0.0000000000000D+00  0.0000000000000D+00
338  3.3700000000000D+00  0.0000000000000D+00  0.0000000000000D+00
339  3.3800000000000D+00  0.0000000000000D+00  0.0000000000000D+00
340  3.3900000000000D+00  0.0000000000000D+00  0.0000000000000D+00
341  3.4000000000000D+00  0.0000000000000D+00  0.0000000000000D+00
342  3.4100000000000D+00  0.0000000000000D+00  0.0000000000000D+00
343  3.4200000000000D+00  0.0000000000000D+00  0.0000000000000D+00
344  3.4300000000000D+00  0.0000000000000D+00  0.0000000000000D+00
345  3.4400000000000D+00  0.0000000000000D+00  0.0000000000000D+00
346  3.4500000000000D+00  0.0000000000000D+00  0.0000000000000D+00
347  3.4600000000000D+00  0.0000000000000D+00  0.0000000000000D+00
348  3.4700000000000D+00  0.0000000000000D+00  0.0000000000000D+00
349  3.4800000000000D+00  0.0000000000000D+00  0.0000000000000D+00
350  3.4900000000000D+00  0.0000000000000D+00  0.0000000000000D+00
351  3.5000000000000D+00  0.0000000000000D+00  0.0000000000000D+00
352  3.5100000000000D+00  0.0000000000000D+00  0.0000000000000D+00
353  3.5200000000000D+00  0.0000000000000D+00  0.0000000000000D+00
354  3.5300000000000D+00  0.0000000000000D+00  0.0000000000000D+00
355  3.5400000000000D+00  0.0000000000000D+00  0.0000000000000D+00
356  3.5500000000000D+00  0.0000000000000D+00  0.0000000000000D+00
357  3.5600000000000D+00  0.0000000000000D+00  0.0000000000000D+00
358  3.5700000000000D+00  0.0000000000000D+00  0.0000000000000D+00
359  3.5800000000000D+00  0.0000000000000D+00  0.0000000000000D+00
360  3.5900000000000D+00  0.0000000000000D+00  0.0000000000000D+00
361  3.6000000000000D+00  0.0000000000000D+00  0.0000000000000D+00
362  3.6100000000000D+00  0.0000000000000D+00  0.0000000000000D+00
363  3.6200000000000D+00  0.0000000000000D+00  0.0000000000000D+00
364  3.6300000000000D+00  0.0000000000000D+00  0.0000000000000D+00
365  3.6400000000000D+00  0.0000000000000D+00  0.0000000000000D+00
366  3.6500000000000D+00  0.0000000000000D+00  0.0000000000000D+00
367  3.6600000000000D+00  0.0000000000000D+00  0.0000000000000D+00
368  3.6700000000000D+00  0.0000000000000D+00  0.0000000000000D+00
369  3.6800000000000D+00  0.0000000000000D+00  0.0000000000000D+00
370  3.6900000000000D+00  0.0000000000000D+00  0.0000000000000D+00
371  3.7000000000000D+00  0.0000000000000D+00  0.0000000000000D+00
372  3.7100000000000D+00  0.0000000000000D+00  0.0000000000000D+00
373  3.7200000000000D+00  0.0000000000000D+00  0.0000000000000D+00
374  3.7300000000000D+00  0.0000000000000D+00  0.0000000000000D+00
375  3.7400000000000D+00  0.0000000000000D+00  0.0000000000000D+00
376  3.7500000000000D+00  0.0000000000000D+00  0.0000000000000D+00
377  3.7600000000000D+00  0.0000000000000D+00  0.0000000000000D+00
378  3.7700000000000D+00  0.0000000000000D+00  0.0000000000000D+00
379  3.7800000000000D+00  0.0000000000000D+00  0.0000000000000D+00
380  3.7900000000000D+00  0.0000000000000D+00  0.0000000000000D+00
381  3.8000000000000D+00  0.0000000000000D+00  0.0000000000000D+00
382  3.8100000000000D+00  0.0000000000000D+00  0.0000000000000D+00
383  3.8200000000000D+00  0.0000000000000D+00  0.0000000000000D+00
384  3.8300000000000D+00  0.0000000000000D+00  0.0000000000000D+00
385  3.8400000000000D+00  0.0000000000000D+00  0.0000000000000D+00
386  3.8500000000000D+00  0.0000000000000D+00  0.0000000000000D+00
387  3.8600000000000D+00  0.0000000000000D+00  0.0000000000000D+00
388  3.8700000000000D+00  0.0000000000000D+00  0.0000000000000D+00
389  3.8800000000000D+00  0.0000000000000D+00  0.0000000000000D+00
390  3.8900000000000D+00  0.0000000000000D+00  0.0000000000000D+00
391  3.9000000000000D+00  0.0000000000000D+00  0.0000000000000D+00
392  3.9100000000000D+00  0.0000000000000D+00  0.0000000000000D+00
393  3.9200000000000D+00  0.0000000000000D+00  0.0000000000000D+00
394  3.9300000000000D+00  0.0000000000000D+00  0.0000000000000D+00
395  3.9400000000000D+00  0.0000000000000D+00  0.0000000000000D+00
396  3.9500000000000D+00  0.0000000000000D+00  0.0000000000000D+00
397  3.9600000000000D+00  0.0000000000000D+00  0.0000000000000D+00
398  3.9700000000000D+00  0.0000000000000D+00  0.0000000000000D+00
399  3.9800000000000D+00  0.0000000000000D+00  0.0000000000000D+00
400  3.9900000000000D+00  0.0000000000000D+00  0.0000000000000D+00
401  4.0000000000000D+00  0.0000000000000D+00  0.0000000000000D+00
402  4.0100000000000D+00  0.0000000000000D+00  0.0000000000000D+00
403  4.0200000000000D+00  0.0000000000000D+00  0.0000000000000D+00
404  4.0300000000000D+00  0.0000000000000D+00  0.0000000000000D+00
405  4.0400000000000D+00  0.0000000000000D+00  0.0000000000000D+00
406  4.0500000000000D+00  0.0000000000000D+00  0.0000000000000D+00
407  4.0600000000000D+00  0.0000000000000D+00  0.0000000000000D+00
408  4.0700000000000D+00  0.0000000000000D+00  0.0000000000000D+00
409  4.0800000000000D+00  0.0000000000000D+00  0.0000000000000D+00
410  4.0900000000000D+00  0.0000000000000D+00  0.0000000000000D+00
411  4.1000000000000D+00  0.0000000000000D+00  0.0000000000000D+00
412  4.1100000000000D+00  0.0000000000000D+00  0.0000000000000D+00
413  4.1200000000000D+00  0.0000000000000D+00  0.0000000000000D+00
414  4.1300000000000D+00  0.0000000000000D+00  0.0000000000000D+00
415  4.1400000000000D+00  0.0000000000000D+00  0.0000000000000D+00
416  4.1500000000000D+00  0.0000000000000D+00  0.0000000000000D+00
417  4.1600000000000D+00  0.0000000000000D+00  0.0000000000000D+00
418  4.1700000000000D+00  0.0000000000000D+00  0.0000000000000D+00
419  4.1800000000000D+00  0.0000000000000D+00  0.0000000000000D+00
420  4.1900000000000D+00  0.0000000000000D+00  0.0000000000000D+00
421  4.2000000000000D+00  0.0000000000000D+00  0.0000000000000D+00
422  4.2100000000000D+00  0.0000000000000D+00  0.0000000000000D+00
423  4.2200000000000D+00  0.0000000000000D+00  0.0000000000000D+00
424  4.2300000000000D+00  0.0000000000000D+00  0.0000000000000D+00
425  4.2400000000000D+00  0.0000000000000D+00  0.0000000000000D+00
426  4.2500000000000D+00  0.0000000000000D+00  0.0000000000000D+00
427  4.2600000000000D+00  0.0000000000000D+00  0.0000000000000D+00
428  4.2700000000000D+00  0.0000000000000D+00  0.0000000000000D+00
429  4.2800000000000D+00  0.0000000000000D+00  0.0000000000000D+00
430  4.2900000000000D+00  0.0000000000000D+00  0.0000000000000D+00
431  4.3000000000000D+00  0.0000000000000D+00  0.0000000000000D+00
432  4.3100000000000D+00  0.0000000000000D+00  0.0000000000000D+00
433  4.3200000000000D+00  0.0000000000000D+00  0.0000000000000D+00
434  4.3300000000000D+00  0.0000000000000D+00  0.0000000000000D+00
435  4.3400000000000D+00  0.0000000000000D+00  0.0000000000000D+00
436  4.3500000000000D+00  0.0000000000000D+00  0.0000000000000D+00
437  4.3600000000000D+00  0.0000000000000D+00  0.0000000000000D+00
438  4.3700000000000D+00  0.0000000000000D+00  0.0000000000000D+00
439  4.3800000000000D+00  0.0000000000000D+00  0.0000000000000D+00
440  4.3900000000000D+00  0.0000000000000D+00  0.0000000000000D+00
441  4.4000000000000D+00  0.0000000000000D+00  0.0000000000000D+00
442  4.4100000000000D+00  0.0000000000000D+00  0.0000000000000D+00
443  4.4200000000000D+00  0.0000000000000D+00  0.0000000000000D+00