Ba    ONCVPSP-3.3.0  r_core=   1.95835   1.80147   1.91218
56.0000     10.0000      180507    zatom,zion,pspd
8      11   2     4   600     0    pspcod,pspxc,lmax,lloc,mmax,r2well
5.99000000  5.00000000  0.00000000    rchrg fchrg qchrg
2     4     3     0    nproj
3     1           extension_switch
4     4     0    nprojso
0                         6.2702722650220D-01  6.5254319631634D+00
1  0.0000000000000D+00 -1.1037445957207D-10  2.2990470638362D-11
2  1.0000000000000D-02 -2.2241702581839D-03  2.4768997190851D-02
3  2.0000000000000D-02 -4.4987044851931D-03  4.9544577147022D-02
4  3.0000000000000D-02 -6.8734930528054D-03  7.4333199062276D-02
5  4.0000000000000D-02 -9.3974828019365D-03  9.9141075827129D-02
6  5.0000000000000D-02 -1.2118214407193D-02  1.2397405297107D-01
7  6.0000000000000D-02 -1.5081370618880D-02  1.4883749010104D-01
8  7.0000000000000D-02 -1.8330338878104D-02  1.7373614564111D-01
9  8.0000000000000D-02 -2.1905791690234D-02  1.9867406565543D-01
10  9.0000000000000D-02 -2.5845288005639D-02  2.2365447750795D-01
11  1.0000000000000D-01 -3.0182898695301D-02  2.4867968907879D-01
12  1.1000000000000D-01 -3.4948859023752D-02  2.7375099421866D-01
13  1.2000000000000D-01 -4.0169250814345D-02  2.9886858507908D-01
14  1.3000000000000D-01 -4.5865716773603D-02  3.2403147190863D-01
15  1.4000000000000D-01 -5.2055209194025D-02  3.4923741085363D-01
16  1.5000000000000D-01 -5.8749774990236D-02  3.7448284024604D-01
17  1.6000000000000D-01 -6.5956378743654D-02  3.9976282580255D-01
18  1.7000000000000D-01 -7.3676765138096D-02  4.2507101509761D-01
19  1.8000000000000D-01 -8.1907361865140D-02  4.5039960160840D-01
20  1.9000000000000D-01 -9.0639223766092D-02  4.7573929856441D-01
21  2.0000000000000D-01 -9.9858018658961D-02  5.0107932276643D-01
22  2.1000000000000D-01 -1.0954405497738D-01  5.2640738847138D-01
23  2.2000000000000D-01 -1.1967235102472D-01  5.5170971137040D-01
24  2.3000000000000D-01 -1.3021274532565D-01  5.7697102261887D-01
25  2.4000000000000D-01 -1.4113004723841D-01  6.0217459280819D-01
26  2.5000000000000D-01 -1.5238422668005D-01  6.2730226570208D-01
27  2.6000000000000D-01 -1.6393064151334D-01  6.5233450149397D-01
28  2.7000000000000D-01 -1.7572030085180D-01  6.7725042927805D-01
29  2.8000000000000D-01 -1.8770016226072D-01  7.0202790836509D-01
30  2.9000000000000D-01 -1.9981346056857D-01  7.2664359801532D-01
31  3.0000000000000D-01 -2.1200006575707D-01  7.5107303510527D-01
32  3.1000000000000D-01 -2.2419686717263D-01  7.7529071919396D-01
33  3.2000000000000D-01 -2.3633818109605D-01  7.9927020440584D-01
34  3.3000000000000D-01 -2.4835617852620D-01  8.2298419750505D-01
35  3.4000000000000D-01 -2.6018132987538D-01  8.4640466149694D-01
36  3.5000000000000D-01 -2.7174286314261D-01  8.6950292405918D-01
37  3.6000000000000D-01 -2.8296923202624D-01  8.9224979007699D-01
38  3.7000000000000D-01 -2.9378859036016D-01  9.1461565753379D-01
39  3.8000000000000D-01 -3.0412926920942D-01  9.3657063599173D-01
40  3.9000000000000D-01 -3.1392025294133D-01  9.5808466688505D-01
41  4.0000000000000D-01 -3.2309165059774D-01  9.7912764484361D-01
42  4.1000000000000D-01 -3.3157515893311D-01  9.9966953926404D-01
43  4.2000000000000D-01 -3.3930451355078D-01  1.0196805153522D+00
44  4.3000000000000D-01 -3.4621592466590D-01  1.0391310538722D+00
45  4.4000000000000D-01 -3.5224849414857D-01  1.0579920688549D+00
46  4.5000000000000D-01 -3.5734461065146D-01  1.0762350225418D+00
47  4.6000000000000D-01 -3.6145031980386D-01  1.0938320368678D+00
48  4.7000000000000D-01 -3.6451566665622D-01  1.1107560008209D+00
49  4.8000000000000D-01 -3.6649500778407D-01  1.1269806730551D+00
50  4.9000000000000D-01 -3.6734729070719D-01  1.1424807791728D+00
51  5.0000000000000D-01 -3.6703629854567D-01  1.1572321031446D+00
52  5.1000000000000D-01 -3.6553085811852D-01  1.1712115723809D+00
53  5.2000000000000D-01 -3.6280500998906D-01  1.1843973360263D+00
54  5.3000000000000D-01 -3.5883813927369D-01  1.1967688361029D+00
55  5.4000000000000D-01 -3.5361506635259D-01  1.2083068711912D+00
56  5.5000000000000D-01 -3.4712609695160D-01  1.2189936523953D+00
57  5.6000000000000D-01 -3.3936703140042D-01  1.2288128514044D+00
58  5.7000000000000D-01 -3.3033913320976D-01  1.2377496405267D+00
59  5.8000000000000D-01 -3.2004905744940D-01  1.2457907246352D+00
60  5.9000000000000D-01 -3.0850873974342D-01  1.2529243650314D+00
61  6.0000000000000D-01 -2.9573524702921D-01  1.2591403952937D+00
62  6.1000000000000D-01 -2.8175059154747D-01  1.2644302292449D+00
63  6.2000000000000D-01 -2.6658150984137D-01  1.2687868612292D+00
64  6.3000000000000D-01 -2.5025920883895D-01  1.2722048589539D+00
65  6.4000000000000D-01 -2.3281908137309D-01  1.2746803492015D+00
66  6.5000000000000D-01 -2.1430039375569D-01  1.2762109967781D+00
67  6.6000000000000D-01 -1.9474594826259D-01  1.2767959771073D+00
68  6.7000000000000D-01 -1.7420172360367D-01  1.2764359429314D+00
69  6.8000000000000D-01 -1.5271649664532D-01  1.2751329856172D+00
70  6.9000000000000D-01 -1.3034144881831D-01  1.2728905916060D+00
71  7.0000000000000D-01 -1.0712976078057D-01  1.2697135945764D+00
72  7.1000000000000D-01 -8.3136199013125D-02  1.2656081239155D+00
73  7.2000000000000D-01 -5.8416698103225D-02  1.2605815501170D+00
74  7.3000000000000D-01 -3.3027942513904D-02  1.2546424277380D+00
75  7.4000000000000D-01 -7.0269516514963D-03  1.2478004365575D+00
76  7.5000000000000D-01  1.9529327977587D-02  1.2400663215829D+00
77  7.6000000000000D-01  4.6584419783265D-02  1.2314518325471D+00
78  7.7000000000000D-01  7.4082699629256D-02  1.2219696635329D+00
79  7.8000000000000D-01  1.0196976035869D-01  1.2116333933454D+00
80  7.9000000000000D-01  1.3019275492438D-01  1.2004574272317D+00
81  8.0000000000000D-01  1.5870071492149D-01  1.1884569405252D+00
82  8.1000000000000D-01  1.8744484153006D-01  1.1756478247560D+00
83  8.2000000000000D-01  2.1637876611333D-01  1.1620466367357D+00
84  8.3000000000000D-01  2.4545877798218D-01  1.1476705510802D+00
85  8.4000000000000D-01  2.7464401712398D-01  1.1325373165911D+00
86  8.5000000000000D-01  3.0389663000559D-01  1.1166652168646D+00
87  8.6000000000000D-01  3.3318188688967D-01  1.1000730354401D+00
88  8.7000000000000D-01  3.6246825945150D-01  1.0827800257483D+00
89  8.8000000000000D-01  3.9172745784434D-01  1.0648058860542D+00
90  8.9000000000000D-01  4.2093442673514D-01  1.0461707395290D+00
91  9.0000000000000D-01  4.5006730021221D-01  1.0268951195208D+00
92  9.1000000000000D-01  4.7910731585479D-01  1.0069999600289D+00
93  9.2000000000000D-01  5.0803868864115D-01  9.8650659131895D-01
94  9.3000000000000D-01  5.3684844575986D-01  9.6543674055107D-01
95  9.4000000000000D-01  5.6552622377068D-01  9.4381253722828D-01
96  9.5000000000000D-01  5.9406402993614D-01  9.2165652320614D-01
97  9.6000000000000D-01  6.2245596990810D-01  8.9899166694424D-01
98  9.7000000000000D-01  6.5069794430201D-01  8.7584138161892D-01
99  9.8000000000000D-01  6.7878731702244D-01  8.5222954666002D-01
100  9.9000000000000D-01  7.0672255851475D-01  8.2818053222067D-01
101  1.0000000000000D+00  7.3450286740417D-01  8.0371922603996D-01
102  1.0100000000000D+00  7.6212777423982D-01  7.7887106211418D-01
103  1.0200000000000D+00  7.8959673130106D-01  7.5366205055108D-01
104  1.0300000000000D+00  8.1690869261634D-01  7.2811880794900D-01
105  1.0400000000000D+00  8.4406168851446D-01  7.0226858761367D-01
106  1.0500000000000D+00  8.7105239915955D-01  6.7613930890359D-01
107  1.0600000000000D+00  8.9787573161324D-01  6.4975958498007D-01
108  1.0700000000000D+00  9.2452440502668D-01  6.2315874822857D-01
109  1.0800000000000D+00  9.5098854858173D-01  5.9636687261674D-01
110  1.0900000000000D+00  9.7725531677688D-01  5.6941479226012D-01
111  1.1000000000000D+00  1.0033085265852D+00  5.4233411548018D-01
112  1.1100000000000D+00  1.0291283209145D+00  5.1515723365800D-01
113  1.1200000000000D+00  1.0546908626605D+00  4.8791732421354D-01
114  1.1300000000000D+00  1.0799680634456D+00  4.6064834707696D-01
115  1.1400000000000D+00  1.1049273509182D+00  4.3338503405942D-01
116  1.1500000000000D+00  1.1295314782272D+00  4.0616287057807D-01
117  1.1600000000000D+00  1.1537383790221D+00  3.7901806923879D-01
118  1.1700000000000D+00  1.1775010709466D+00  3.5198753485061D-01
119  1.1800000000000D+00  1.2007676102338D+00  3.2510882051080D-01
120  1.1900000000000D+00  1.2234810996987D+00  2.9842007445657D-01
121  1.2000000000000D+00  1.2455797519383D+00  2.7195997746844D-01
122  1.2100000000000D+00  1.2669970090977D+00  2.4576767069107D-01
123  1.2200000000000D+00  1.2876617200980D+00  2.1988267382206D-01
124  1.2300000000000D+00  1.3074983759120D+00  1.9434479367470D-01
125  1.2400000000000D+00  1.3264274027189D+00  1.6919402325728D-01
126  1.2500000000000D+00  1.3443655123335D+00  1.4447043158961D-01
127  1.2600000000000D+00  1.3612261091282D+00  1.2021404450921D-01
128  1.2700000000000D+00  1.3769197516717D+00  9.6464716898636D-02
129  1.2800000000000D+00  1.3913546669848D+00  7.3261996821984D-02
130  1.2900000000000D+00  1.4044373151639D+00  5.0644982086197D-02
131  1.3000000000000D+00  1.4160730010887D+00  2.8652169926814D-02
132  1.3100000000000D+00  1.4261665296401D+00  7.3213005676421D-03
133  1.3200000000000D+00  1.4346229008688D+00 -1.3310804597103D-02
134  1.3300000000000D+00  1.4413480403300D+00 -3.3208409235110D-02
135  1.3400000000000D+00  1.4462495599280D+00 -5.2337031784172D-02
136  1.3500000000000D+00  1.4492375443459D+00 -7.0663617648342D-02
137  1.3600000000000D+00  1.4502253572056D+00 -8.8156712736757D-02
138  1.3700000000000D+00  1.4491304614649D+00 -1.0478663726301D-01
139  1.3800000000000D+00  1.4458752479396D+00 -1.2052565861456D-01
140  1.3900000000000D+00  1.4403878655575D+00 -1.3534816206506D-01
141  1.4000000000000D+00  1.4326030471707D+00 -1.4923081813014D-01
142  1.4100000000000D+00  1.4224629241143D+00 -1.6215274527401D-01
143  1.4200000000000D+00  1.4099178230926D+00 -1.7409566674260D-01
144  1.4300000000000D+00  1.3949270385437D+00 -1.8504406022031D-01
145  1.4400000000000D+00  1.3774595740867D+00 -1.9498529911800D-01
146  1.4500000000000D+00  1.3574948462118D+00 -2.0390978419315D-01
147  1.4600000000000D+00  1.3350233440029D+00 -2.1181106435764D-01
148  1.4700000000000D+00  1.3100472386368D+00 -2.1868594550481D-01
149  1.4800000000000D+00  1.2825809362305D+00 -2.2453458616546D-01
150  1.4900000000000D+00  1.2526515692032D+00 -2.2936057912290D-01
151  1.5000000000000D+00  1.2202994192701D+00 -2.3317101770479D-01
152  1.5100000000000D+00  1.1855782687852D+00 -2.3597654619659D-01
153  1.5200000000000D+00  1.1485556739753D+00 -2.3779139318181D-01
154  1.5300000000000D+00  1.1093131573317D+00 -2.3863338736245D-01
155  1.5400000000000D+00  1.0679463145907D+00 -2.3852395504193D-01
156  1.5500000000000D+00  1.0245648331275D+00 -2.3748809873579D-01
157  1.5600000000000D+00  9.7929242006193D-01 -2.3555435665730D-01
158  1.5700000000000D+00  9.3226663601347D-01 -2.3275474236967D-01
159  1.5800000000000D+00  8.8363863614806D-01 -2.2912466500482D-01
160  1.5900000000000D+00  8.3357281343988D-01 -2.2470282914469D-01
161  1.6000000000000D+00  7.8224634921893D-01 -2.1953111542867D-01
162  1.6100000000000D+00  7.2984866535939D-01 -2.1365444087627D-01
163  1.6200000000000D+00  6.7658078556161D-01 -2.0712060044636D-01
164  1.6300000000000D+00  6.2265460122160D-01 -1.9998008904545D-01
165  1.6400000000000D+00  5.6829205007014D-01 -1.9228590564351D-01
166  1.6500000000000D+00  5.1372420517031D-01 -1.8409333911628D-01
167  1.6600000000000D+00  4.5919028284294D-01 -1.7545973754417D-01
168  1.6700000000000D+00  4.0493656910256D-01 -1.6644426097184D-01
169  1.6800000000000D+00  3.5121527363085D-01 -1.5710761944354D-01
170  1.6900000000000D+00  2.9828331256181D-01 -1.4751179664453D-01
171  1.7000000000000D+00  2.4640102967606D-01 -1.3771976106985D-01
172  1.7100000000000D+00  1.9583085860346D-01 -1.2779516530594D-01
173  1.7200000000000D+00  1.4683593625480D-01 -1.1780203546214D-01
174  1.7300000000000D+00  9.9678671099922D-02 -1.0780445153391D-01
175  1.7400000000000D+00  5.4619275005069D-02 -9.7866220491358D-02
176  1.7500000000000D+00  1.1914269300108D-02 -8.8050544073357D-02
177  1.7600000000000D+00 -2.8185018918223D-02 -7.8419684219173D-02
178  1.7700000000000D+00 -6.5434058114987D-02 -6.9034611739032D-02
179  1.7800000000000D+00 -9.9596391684790D-02 -5.9954710379848D-02
180  1.7900000000000D+00 -1.3044542144332D-01 -5.1237390976929D-02
181  1.8000000000000D+00 -1.5776650965392D-01 -4.2937662811250D-02
182  1.8100000000000D+00 -1.8135688586023D-01 -3.5108062891886D-02
183  1.8200000000000D+00 -2.0102616856303D-01 -2.7798481090182D-02
184  1.8300000000000D+00 -2.1659668260072D-01 -2.1056054754240D-02
185  1.8400000000000D+00 -2.2790312543082D-01 -1.4925172494670D-02
186  1.8500000000000D+00 -2.3479355867244D-01 -9.4472646143117D-03
187  1.8600000000000D+00 -2.3713078797786D-01 -4.6605386598927D-03
188  1.8700000000000D+00 -2.3479328809735D-01 -5.9979047410174D-04
189  1.8800000000000D+00 -2.2767591974935D-01  2.7037510807431D-03
190  1.8900000000000D+00 -2.1567399454826D-01  5.2211488999794D-03
191  1.9000000000000D+00 -1.9850391173175D-01  6.9103745579219D-03
192  1.9100000000000D+00 -1.7676047305526D-01  7.8075403431175D-03
193  1.9200000000000D+00 -1.5169146180292D-01  8.0032390304409D-03
194  1.9300000000000D+00 -1.1957406436864D-01  7.1755185010522D-03
195  1.9400000000000D+00 -7.6337128834736D-02  4.9842314082349D-03
196  1.9500000000000D+00 -2.9492417931563D-02  2.0403685721730D-03
197  1.9600000000000D+00  2.8426928081157D-03 -1.6388783257439D-04
198  1.9700000000000D+00  8.7044886946243D-03 -5.8381497570627D-04
199  1.9800000000000D+00  1.6896569457675D-03 -1.1560040739427D-04
200  1.9900000000000D+00 -2.0288335768738D-03  1.3176991395704D-04
201  2.0000000000000D+00 -1.3408902016146D-03  8.7620714105100D-05
202  2.0100000000000D+00  1.6810360234041D-04 -1.0090550570140D-05
203  2.0200000000000D+00  2.5999729287461D-04 -1.5647382586328D-05
204  2.0300000000000D+00  1.2493813596543D-08 -4.9248156795118D-09
205  2.0400000000000D+00  2.6377284026595D-07 -1.0397406760819D-07
206  2.0500000000000D+00  1.2593566943613D-07 -4.9641364876809D-08
207  2.0600000000000D+00  0.0000000000000D+00  0.0000000000000D+00
208  2.0700000000000D+00  0.0000000000000D+00  0.0000000000000D+00
209  2.0800000000000D+00  0.0000000000000D+00  0.0000000000000D+00
210  2.0900000000000D+00  0.0000000000000D+00  0.0000000000000D+00
211  2.1000000000000D+00  0.0000000000000D+00  0.0000000000000D+00
212  2.1100000000000D+00  0.0000000000000D+00  0.0000000000000D+00
213  2.1200000000000D+00  0.0000000000000D+00  0.0000000000000D+00
214  2.1300000000000D+00  0.0000000000000D+00  0.0000000000000D+00
215  2.1400000000000D+00  0.0000000000000D+00  0.0000000000000D+00
216  2.1500000000000D+00  0.0000000000000D+00  0.0000000000000D+00
217  2.1600000000000D+00  0.0000000000000D+00  0.0000000000000D+00
218  2.1700000000000D+00  0.0000000000000D+00  0.0000000000000D+00
219  2.1800000000000D+00  0.0000000000000D+00  0.0000000000000D+00
220  2.1900000000000D+00  0.0000000000000D+00  0.0000000000000D+00
221  2.2000000000000D+00  0.0000000000000D+00  0.0000000000000D+00
222  2.2100000000000D+00  0.0000000000000D+00  0.0000000000000D+00
223  2.2200000000000D+00  0.0000000000000D+00  0.0000000000000D+00
224  2.2300000000000D+00  0.0000000000000D+00  0.0000000000000D+00
225  2.2400000000000D+00  0.0000000000000D+00  0.0000000000000D+00
226  2.2500000000000D+00  0.0000000000000D+00  0.0000000000000D+00
227  2.2600000000000D+00  0.0000000000000D+00  0.0000000000000D+00
228  2.2700000000000D+00  0.0000000000000D+00  0.0000000000000D+00
229  2.2800000000000D+00  0.0000000000000D+00  0.0000000000000D+00
230  2.2900000000000D+00  0.0000000000000D+00  0.0000000000000D+00
231  2.3000000000000D+00  0.0000000000000D+00  0.0000000000000D+00
232  2.3100000000000D+00  0.0000000000000D+00  0.0000000000000D+00
233  2.3200000000000D+00  0.0000000000000D+00  0.0000000000000D+00
234  2.3300000000000D+00  0.0000000000000D+00  0.0000000000000D+00
235  2.3400000000000D+00  0.0000000000000D+00  0.0000000000000D+00
236  2.3500000000000D+00  0.0000000000000D+00  0.0000000000000D+00
237  2.3600000000000D+00  0.0000000000000D+00  0.0000000000000D+00
238  2.3700000000000D+00  0.0000000000000D+00  0.0000000000000D+00
239  2.3800000000000D+00  0.0000000000000D+00  0.0000000000000D+00
240  2.3900000000000D+00  0.0000000000000D+00  0.0000000000000D+00
241  2.4000000000000D+00  0.0000000000000D+00  0.0000000000000D+00
242  2.4100000000000D+00  0.0000000000000D+00  0.0000000000000D+00
243  2.4200000000000D+00  0.0000000000000D+00  0.0000000000000D+00
244  2.4300000000000D+00  0.0000000000000D+00  0.0000000000000D+00
245  2.4400000000000D+00  0.0000000000000D+00  0.0000000000000D+00
246  2.4500000000000D+00  0.0000000000000D+00  0.0000000000000D+00
247  2.4600000000000D+00  0.0000000000000D+00  0.0000000000000D+00
248  2.4700000000000D+00  0.0000000000000D+00  0.0000000000000D+00
249  2.4800000000000D+00  0.0000000000000D+00  0.0000000000000D+00
250  2.4900000000000D+00  0.0000000000000D+00  0.0000000000000D+00
251  2.5000000000000D+00  0.0000000000000D+00  0.0000000000000D+00
252  2.5100000000000D+00  0.0000000000000D+00  0.0000000000000D+00
253  2.5200000000000D+00  0.0000000000000D+00  0.0000000000000D+00
254  2.5300000000000D+00  0.0000000000000D+00  0.0000000000000D+00
255  2.5400000000000D+00  0.0000000000000D+00  0.0000000000000D+00
256  2.5500000000000D+00  0.0000000000000D+00  0.0000000000000D+00
257  2.5600000000000D+00  0.0000000000000D+00  0.0000000000000D+00
258  2.5700000000000D+00  0.0000000000000D+00  0.0000000000000D+00
259  2.5800000000000D+00  0.0000000000000D+00  0.0000000000000D+00
260  2.5900000000000D+00  0.0000000000000D+00  0.0000000000000D+00
261  2.6000000000000D+00  0.0000000000000D+00  0.0000000000000D+00
262  2.6100000000000D+00  0.0000000000000D+00  0.0000000000000D+00
263  2.6200000000000D+00  0.0000000000000D+00  0.0000000000000D+00
264  2.6300000000000D+00  0.0000000000000D+00  0.0000000000000D+00
265  2.6400000000000D+00  0.0000000000000D+00  0.0000000000000D+00
266  2.6500000000000D+00  0.0000000000000D+00  0.0000000000000D+00
267  2.6600000000000D+00  0.0000000000000D+00  0.0000000000000D+00
268  2.6700000000000D+00  0.0000000000000D+00  0.0000000000000D+00
269  2.6800000000000D+00  0.0000000000000D+00  0.0000000000000D+00
270  2.6900000000000D+00  0.0000000000000D+00  0.0000000000000D+00
271  2.7000000000000D+00  0.0000000000000D+00  0.0000000000000D+00
272  2.7100000000000D+00  0.0000000000000D+00  0.0000000000000D+00
273  2.7200000000000D+00  0.0000000000000D+00  0.0000000000000D+00
274  2.7300000000000D+00  0.0000000000000D+00  0.0000000000000D+00
275  2.7400000000000D+00  0.0000000000000D+00  0.0000000000000D+00
276  2.7500000000000D+00  0.0000000000000D+00  0.0000000000000D+00
277  2.7600000000000D+00  0.0000000000000D+00  0.0000000000000D+00
278  2.7700000000000D+00  0.0000000000000D+00  0.0000000000000D+00
279  2.7800000000000D+00  0.0000000000000D+00  0.0000000000000D+00
280  2.7900000000000D+00  0.0000000000000D+00  0.0000000000000D+00
281  2.8000000000000D+00  0.0000000000000D+00  0.0000000000000D+00
282  2.8100000000000D+00  0.0000000000000D+00  0.0000000000000D+00
283  2.8200000000000D+00  0.0000000000000D+00  0.0000000000000D+00
284  2.8300000000000D+00  0.0000000000000D+00  0.0000000000000D+00
285  2.8400000000000D+00  0.0000000000000D+00  0.0000000000000D+00
286  2.8500000000000D+00  0.0000000000000D+00  0.0000000000000D+00
287  2.8600000000000D+00  0.0000000000000D+00  0.0000000000000D+00
288  2.8700000000000D+00  0.0000000000000D+00  0.0000000000000D+00
289  2.8800000000000D+00  0.0000000000000D+00  0.0000000000000D+00
290  2.8900000000000D+00  0.0000000000000D+00  0.0000000000000D+00
291  2.9000000000000D+00  0.0000000000000D+00  0.0000000000000D+00
292  2.9100000000000D+00  0.0000000000000D+00  0.0000000000000D+00
293  2.9200000000000D+00  0.0000000000000D+00  0.0000000000000D+00
294  2.9300000000000D+00  0.0000000000000D+00  0.0000000000000D+00
295  2.9400000000000D+00  0.0000000000000D+00  0.0000000000000D+00
296  2.9500000000000D+00  0.0000000000000D+00  0.0000000000000D+00
297  2.9600000000000D+00  0.0000000000000D+00  0.0000000000000D+00
298  2.9700000000000D+00  0.0000000000000D+00  0.0000000000000D+00
299  2.9800000000000D+00  0.0000000000000D+00  0.0000000000000D+00
300  2.9900000000000D+00  0.0000000000000D+00  0.0000000000000D+00
301  3.0000000000000D+00  0.0000000000000D+00  0.0000000000000D+00
302  3.0100000000000D+00  0.0000000000000D+00  0.0000000000000D+00
303  3.0200000000000D+00  0.0000000000000D+00  0.0000000000000D+00
304  3.0300000000000D+00  0.0000000000000D+00  0.0000000000000D+00
305  3.0400000000000D+00  0.0000000000000D+00  0.0000000000000D+00
306  3.0500000000000D+00  0.0000000000000D+00  0.0000000000000D+00
307  3.0600000000000D+00  0.0000000000000D+00  0.0000000000000D+00
308  3.0700000000000D+00  0.0000000000000D+00  0.0000000000000D+00
309  3.0800000000000D+00  0.0000000000000D+00  0.0000000000000D+00
310  3.0900000000000D+00  0.0000000000000D+00  0.0000000000000D+00
311  3.1000000000000D+00  0.0000000000000D+00  0.0000000000000D+00
312  3.1100000000000D+00  0.0000000000000D+00  0.0000000000000D+00
313  3.1200000000000D+00  0.0000000000000D+00  0.0000000000000D+00
314  3.1300000000000D+00  0.0000000000000D+00  0.0000000000000D+00
315  3.1400000000000D+00  0.0000000000000D+00  0.0000000000000D+00
316  3.1500000000000D+00  0.0000000000000D+00  0.0000000000000D+00
317  3.1600000000000D+00  0.0000000000000D+00  0.0000000000000D+00
318  3.1700000000000D+00  0.0000000000000D+00  0.0000000000000D+00
319  3.1800000000000D+00  0.0000000000000D+00  0.0000000000000D+00
320  3.1900000000000D+00  0.0000000000000D+00  0.0000000000000D+00
321  3.2000000000000D+00  0.0000000000000D+00  0.0000000000000D+00
322  3.2100000000000D+00  0.0000000000000D+00  0.0000000000000D+00
323  3.2200000000000D+00  0.0000000000000D+00  0.0000000000000D+00
324  3.2300000000000D+00  0.0000000000000D+00  0.0000000000000D+00
325  3.2400000000000D+00  0.0000000000000D+00  0.0000000000000D+00
326  3.2500000000000D+00  0.0000000000000D+00  0.0000000000000D+00
327  3.2600000000000D+00  0.0000000000000D+00  0.0000000000000D+00
328  3.2700000000000D+00  0.0000000000000D+00  0.0000000000000D+00
329  3.2800000000000D+00  0.0000000000000D+00  0.0000000000000D+00
330  3.2900000000000D+00  0.0000000000000D+00  0.0000000000000D+00
331  3.3000000000000D+00  0.0000000000000D+00  0.0000000000000D+00
332  3.3100000000000D+00  0.0000000000000D+00  0.0000000000000D+00
333  3.3200000000000D+00  0.0000000000000D+00  0.0000000000000D+00
334  3.3300000000000D+00  0.0000000000000D+00  0.0000000000000D+00
335  3.3400000000000D+00  0.0000000000000D+00  0.0000000000000D+00
336  3.3500000000000D+00  0.0000000000000D+00  0.0000000000000D+00
337  3.3600000000000D+00  0.0000000000000D+00  0.0000000000000D+00
338  3.3700000000000D+00  0.0000000000000D+00  0.0000000000000D+00
339  3.3800000000000D+00  0.0000000000000D+00  0.0000000000000D+00
340  3.3900000000000D+00  0.0000000000000D+00  0.0000000000000D+00
341  3.4000000000000D+00  0.0000000000000D+00  0.0000000000000D+00
342  3.4100000000000D+00  0.0000000000000D+00  0.0000000000000D+00
343  3.4200000000000D+00  0.0000000000000D+00  0.0000000000000D+00
344  3.4300000000000D+00  0.0000000000000D+00  0.0000000000000D+00
345  3.4400000000000D+00  0.0000000000000D+00  0.0000000000000D+00
346  3.4500000000000D+00  0.0000000000000D+00  0.0000000000000D+00
347  3.4600000000000D+00  0.0000000000000D+00  0.0000000000000D+00
348  3.4700000000000D+00  0.0000000000000D+00  0.0000000000000D+00
349  3.4800000000000D+00  0.0000000000000D+00  0.0000000000000D+00
350  3.4900000000000D+00  0.0000000000000D+00  0.0000000000000D+00
351  3.5000000000000D+00  0.0000000000000D+00  0.0000000000000D+00
352  3.5100000000000D+00  0.0000000000000D+00  0.0000000000000D+00
353  3.5200000000000D+00  0.0000000000000D+00  0.0000000000000D+00
354  3.5300000000000D+00  0.0000000000000D+00  0.0000000000000D+00
355  3.5400000000000D+00  0.0000000000000D+00  0.0000000000000D+00
356  3.5500000000000D+00  0.0000000000000D+00  0.0000000000000D+00
357  3.5600000000000D+00  0.0000000000000D+00  0.0000000000000D+00
358  3.5700000000000D+00  0.0000000000000D+00  0.0000000000000D+00
359  3.5800000000000D+00  0.0000000000000D+00  0.0000000000000D+00
360  3.5900000000000D+00  0.0000000000000D+00  0.0000000000000D+00
361  3.6000000000000D+00  0.0000000000000D+00  0.0000000000000D+00
362  3.6100000000000D+00  0.0000000000000D+00  0.0000000000000D+00
363  3.6200000000000D+00  0.0000000000000D+00  0.0000000000000D+00
364  3.6300000000000D+00  0.0000000000000D+00  0.0000000000000D+00
365  3.6400000000000D+00  0.0000000000000D+00  0.0000000000000D+00
366  3.6500000000000D+00  0.0000000000000D+00  0.0000000000000D+00
367  3.6600000000000D+00  0.0000000000000D+00  0.0000000000000D+00
368  3.6700000000000D+00  0.0000000000000D+00  0.0000000000000D+00
369  3.6800000000000D+00  0.0000000000000D+00  0.0000000000000D+00
370  3.6900000000000D+00  0.0000000000000D+00  0.0000000000000D+00
371  3.7000000000000D+00  0.0000000000000D+00  0.0000000000000D+00
372  3.7100000000000D+00  0.0000000000000D+00  0.0000000000000D+00
373  3.7200000000000D+00  0.0000000000000D+00  0.0000000000000D+00
374  3.7300000000000D+00  0.0000000000000D+00  0.0000000000000D+00
375  3.7400000000000D+00  0.0000000000000D+00  0.0000000000000D+00
376  3.7500000000000D+00  0.0000000000000D+00  0.0000000000000D+00
377  3.7600000000000D+00  0.0000000000000D+00  0.0000000000000D+00
378  3.7700000000000D+00  0.0000000000000D+00  0.0000000000000D+00
379  3.7800000000000D+00  0.0000000000000D+00  0.0000000000000D+00
380  3.7900000000000D+00  0.0000000000000D+00  0.0000000000000D+00
381  3.8000000000000D+00  0.0000000000000D+00  0.0000000000000D+00
382  3.8100000000000D+00  0.0000000000000D+00  0.0000000000000D+00
383  3.8200000000000D+00  0.0000000000000D+00  0.0000000000000D+00
384  3.8300000000000D+00  0.0000000000000D+00  0.0000000000000D+00
385  3.8400000000000D+00  0.0000000000000D+00  0.0000000000000D+00
386  3.8500000000000D+00  0.0000000000000D+00  0.0000000000000D+00
387  3.8600000000000D+00  0.0000000000000D+00  0.0000000000000D+00
388  3.8700000000000D+00  0.0000000000000D+00  0.0000000000000D+00
389  3.8800000000000D+00  0.0000000000000D+00  0.0000000000000D+00
390  3.8900000000000D+00  0.0000000000000D+00  0.0000000000000D+00
391  3.9000000000000D+00  0.0000000000000D+00  0.0000000000000D+00
392  3.9100000000000D+00  0.0000000000000D+00  0.0000000000000D+00
393  3.9200000000000D+00  0.0000000000000D+00  0.0000000000000D+00
394  3.9300000000000D+00  0.0000000000000D+00  0.0000000000000D+00
395  3.9400000000000D+00  0.0000000000000D+00  0.0000000000000D+00
396  3.9500000000000D+00  0.0000000000000D+00  0.0000000000000D+00
397  3.9600000000000D+00  0.0000000000000D+00  0.0000000000000D+00
398  3.9700000000000D+00  0.0000000000000D+00  0.0000000000000D+00
399  3.9800000000000D+00  0.0000000000000D+00  0.0000000000000D+00
400  3.9900000000000D+00  0.0000000000000D+00  0.0000000000000D+00
401  4.0000000000000D+00  0.0000000000000D+00  0.0000000000000D+00
402  4.0100000000000D+00  0.0000000000000D+00  0.0000000000000D+00
403  4.0200000000000D+00  0.0000000000000D+00  0.0000000000000D+00
404  4.0300000000000D+00  0.0000000000000D+00  0.0000000000000D+00
405  4.0400000000000D+00  0.0000000000000D+00  0.0000000000000D+00
406  4.0500000000000D+00  0.0000000000000D+00  0.0000000000000D+00
407  4.0600000000000D+00  0.0000000000000D+00  0.0000000000000D+00
408  4.0700000000000D+00  0.0000000000000D+00  0.0000000000000D+00
409  4.0800000000000D+00  0.0000000000000D+00  0.0000000000000D+00
410  4.0900000000000D+00  0.0000000000000D+00  0.0000000000000D+00
411  4.1000000000000D+00  0.0000000000000D+00  0.0000000000000D+00
412  4.1100000000000D+00  0.0000000000000D+00  0.0000000000000D+00
413  4.1200000000000D+00  0.0000000000000D+00  0.0000000000000D+00
414  4.1300000000000D+00  0.0000000000000D+00  0.0000000000000D+00
415  4.1400000000000D+00  0.0000000000000D+00  0.0000000000000D+00
416  4.1500000000000D+00  0.0000000000000D+00  0.0000000000000D+00
417  4.1600000000000D+00  0.0000000000000D+00  0.0000000000000D+00
418  4.1700000000000D+00  0.0000000000000D+00  0.0000000000000D+00
419  4.1800000000000D+00  0.0000000000000D+00  0.0000000000000D+00
420  4.1900000000000D+00  0.0000000000000D+00  0.0000000000000D+00
421  4.2000000000000D+00  0.0000000000000D+00  0.0000000000000D+00
422  4.2100000000000D+00  0.0000000000000D+00  0.0000000000000D+00
423  4.2200000000000D+00  0.0000000000000D+00  0.0000000000000D+00
424  4.2300000000000D+00  0.0000000000000D+00  0.0000000000000D+00
425  4.2400000000000D+00  0.0000000000000D+00  0.0000000000000D+00
426  4.2500000000000D+00  0.0000000000000D+00  0.0000000000000D+00
427  4.2600000000000D+00  0.0000000000000D+00  0.0000000000000D+00
428  4.2700000000000D+00  0.0000000000000D+00  0.0000000000000D+00
429  4.2800000000000D+00  0.0000000000000D+00  0.0000000000000D+00
430  4.2900000000000D+00  0.0000000000000D+00  0.0000000000000D+00
431  4.3000000000000D+00  0.0000000000000D+00  0.0000000000000D+00
432  4.3100000000000D+00  0.0000000000000D+00  0.0000000000000D+00
433  4.3200000000000D+00  0.0000000000000D+00  0.0000000000000D+00
434  4.3300000000000D+00  0.0000000000000D+00  0.0000000000000D+00
435  4.3400000000000D+00  0.0000000000000D+00  0.0000000000000D+00
436  4.3500000000000D+00  0.0000000000000D+00  0.0000000000000D+00
437  4.3600000000000D+00  0.0000000000000D+00  0.0000000000000D+00
438  4.3700000000000D+00  0.0000000000000D+00  0.0000000000000D+00
439  4.3800000000000D+00  0.0000000000000D+00  0.0000000000000D+00
440  4.3900000000000D+00  0.0000000000000D+00  0.0000000000000D+00
441  4.4000000000000D+00  0.0000000000000D+00  0.0000000000000D+00
442  4.4100000000000D+00  0.0000000000000D+00  0.0000000000000D+00
443  4.4200000000000D+00  0.0000000000000D+00  0.0000000000000D+00