<?xml version="1.0" encoding="UTF-8" ?>
<psml version="1.1" energy_unit="hartree" length_unit="bohr"
 uuid="f0dccd00-5200-11e8-7355-e1dc7fffa6e9"
 xmlns="http://esl.cecam.org/PSML/ns/1.1">
<provenance creator="ONCVPSP-3.3.0+psml-3.3.0-73 (fully-relativistic)"
 date="2018-05-07">
<annotation action="semilocal-pseudopotential-generation"
 action-cont="projectors-generation" />
<input-file name="oncvpsp-input">
<![CDATA[# atsym z nc nv iexc psfile
Ba 56 9 3 4 both
# n l f
1 0 2.0
2 0 2.0
2 1 6.0
3 0 2.0
3 1 6.0
3 2 10.0
4 0 2.0
4 1 6.0
4 2 10.0
5 0 2.0
5 1 6.0
6 0 2.0
# lmax
2
# l rc ep ncon nbas qcut
0 1.95 0.0 3 8 5.2
1 1.8 0.0 4 8 6.6
2 1.9 0.0 4 9 6.8
# lloc lpopt rc5 dvloc0
4 5 1.8 0.0
# l nproj debl
0 2 1.0
1 2 2.5
2 2 3.0
# icmod fcfact rcfact
3 5.0 1.25
# epsh1 epsh2 depsh
-12.0 12.0 0.02
# rlmax drl
6.0 0.01
 0
]]>
</input-file>
</provenance>
<pseudo-atom-spec atomic-label="Ba" atomic-number="56" z-pseudo="10"
 flavor="Hamann&apos;s oncvpsp" relativity="dirac" spin-dft="no"
 core-corrections="yes">
<annotation pseudo-energy="-25.6265935967" />
<exchange-correlation>
<annotation oncvpsp-xc-code="4" oncvpsp-xc-type="GGA -- Perdew-Burke-Ernzerhof" />
<libxc-info number-of-functionals="2">
<functional name="Perdew, Burke &amp; Ernzerhof (GGA)" type="exchange" id="101" />
<functional name="Perdew, Burke &amp; Ernzerhof (GGA)" type="correlation"
 id="130" />
</libxc-info>
</exchange-correlation>
<valence-configuration total-valence-charge="10">
<shell n="5" l="s" occupation="2" />
<shell n="5" l="p" occupation="6" />
<shell n="6" l="s" occupation="2" />
</valence-configuration>
</pseudo-atom-spec>
<grid npts="457">
<annotation type="sampled from oncvpsp log grid"
 recipe="r(i:1..N) = r1*exp(a*(i-1)) + r=0; resampled"
 recipe-cont="r1: scale; a: step" scale="0.892857142857E-05"
 step="0.119285708653E-01" delta="0.500000000000E-02" rmax="44.0559055307" />
<grid-data>
  0.000000000000E+00  5.030765996809E-03  1.004856027829E-02  1.507444276529E-02
  2.031206510006E-02  2.547908439618E-02  3.083699266043E-02  3.600963173750E-02
  4.105861707579E-02  4.626040627112E-02  5.150318121329E-02  5.666020677615E-02
  6.233360651298E-02  6.776194178895E-02  7.278953042278E-02  7.819014035445E-02
  8.399144785162E-02  8.915334250897E-02  9.463247370808E-02  1.004483379769E-01
  1.066216300490E-01  1.118323285593E-01  1.172976787660E-01  1.230301257351E-01
  1.290427227344E-01  1.353491609572E-01  1.419638006982E-01  1.471360711987E-01
  1.524967867957E-01  1.580528132467E-01  1.638112664542E-01  1.697795215795E-01
  1.759652224887E-01  1.823762915423E-01  1.890209397420E-01  1.959076772469E-01
  2.030453242728E-01  2.104430223891E-01  2.155239587216E-01  2.207275691810E-01
  2.260568156113E-01  2.315147313674E-01  2.371044230416E-01  2.428290722315E-01
  2.486919373514E-01  2.546963554868E-01  2.608457442937E-01  2.671436039439E-01
  2.735935191176E-01  2.801991610431E-01  2.869642895874E-01  2.938927553952E-01
  3.009885020814E-01  3.082555684757E-01  3.156980909209E-01  3.233203056281E-01
  3.311265510872E-01  3.391212705367E-01  3.473090144925E-01  3.556944433384E-01
  3.642823299784E-01  3.730775625534E-01  3.820851472237E-01  3.913102110182E-01
  4.007580047531E-01  4.104339060198E-01  4.203434222468E-01  4.253875433137E-01
  4.304921938335E-01  4.356581001595E-01  4.408859973614E-01  4.461766293297E-01
  4.515307488817E-01  4.569491178683E-01  4.624325072827E-01  4.679816973701E-01
  4.735974777385E-01  4.792806474714E-01  4.850320152411E-01  4.908523994239E-01
  4.967426282170E-01  5.027035397556E-01  5.087359822327E-01  5.148408140195E-01
  5.210189037877E-01  5.272711306332E-01  5.335983842008E-01  5.400015648112E-01
  5.464815835889E-01  5.530393625920E-01  5.596758349431E-01  5.663919449624E-01
  5.731886483020E-01  5.800669120816E-01  5.870277150266E-01  5.940720476069E-01
  6.012009121782E-01  6.084153231243E-01  6.157163070018E-01  6.231049026858E-01
  6.305821615181E-01  6.381491474563E-01  6.458069372257E-01  6.535566204725E-01
  6.613992999181E-01  6.693360915171E-01  6.773681246153E-01  6.854965421107E-01
  6.937225006161E-01  7.020471706235E-01  7.104717366709E-01  7.189973975110E-01
  7.276253662811E-01  7.363568706765E-01  7.451931531246E-01  7.541354709621E-01
  7.631850966137E-01  7.723433177730E-01  7.816114375863E-01  7.909907748373E-01
  8.004826641354E-01  8.100884561050E-01  8.198095175783E-01  8.296472317892E-01
  8.396029985707E-01  8.496782345535E-01  8.598743733682E-01  8.701928658486E-01
  8.806351802388E-01  8.912028024016E-01  9.018972360304E-01  9.127200028628E-01
  9.236726428972E-01  9.347567146119E-01  9.459737951873E-01  9.573254807295E-01
  9.688133864983E-01  9.804391471363E-01  9.922044169019E-01  1.004110869905E+00
  1.016160200344E+00  1.028354122748E+00  1.040694372221E+00  1.053182704687E+00
  1.065820897144E+00  1.078610747909E+00  1.091554076884E+00  1.104652725807E+00
  1.117908558516E+00  1.131323461219E+00  1.144899342753E+00  1.158638134866E+00
  1.172541792485E+00  1.186612293995E+00  1.200851641522E+00  1.215261861221E+00
  1.229845003555E+00  1.244603143598E+00  1.259538381321E+00  1.274652841897E+00
  1.289948676000E+00  1.305428060112E+00  1.321093196833E+00  1.336946315195E+00
  1.352989670978E+00  1.369225547029E+00  1.385656253594E+00  1.402284128637E+00
  1.419111538180E+00  1.436140876639E+00  1.453374567158E+00  1.470815061964E+00
  1.488464842708E+00  1.506326420820E+00  1.524402337870E+00  1.542695165924E+00
  1.561207507916E+00  1.579941998011E+00  1.598901301987E+00  1.618088117611E+00
  1.637505175022E+00  1.657155237122E+00  1.677041099968E+00  1.697165593167E+00
  1.717531580285E+00  1.738141959249E+00  1.758999662760E+00  1.780107658713E+00
  1.801468950617E+00  1.823086578025E+00  1.844963616961E+00  1.867103180365E+00
  1.889508418529E+00  1.912182519551E+00  1.935128709786E+00  1.958350254303E+00
  1.981850457355E+00  2.005632662843E+00  2.029700254797E+00  2.054056657855E+00
  2.078705337749E+00  2.103649801802E+00  2.128893599424E+00  2.154440322617E+00
  2.180293606488E+00  2.206457129766E+00  2.232934615323E+00  2.259729830707E+00
  2.286846588676E+00  2.314288747740E+00  2.342060212713E+00  2.370164935265E+00
  2.398606914488E+00  2.427390197462E+00  2.456518879832E+00  2.485997106390E+00
  2.515829071666E+00  2.546019020526E+00  2.576571248773E+00  2.607490103758E+00
  2.638779985003E+00  2.670445344823E+00  2.702490688961E+00  2.734920577229E+00
  2.767739624155E+00  2.800952499645E+00  2.834563929641E+00  2.868578696797E+00
  2.903001641158E+00  2.937837660852E+00  2.973091712782E+00  3.008768813336E+00
  3.044874039096E+00  3.081412527565E+00  3.118389477896E+00  3.155810151630E+00
  3.193679873450E+00  3.232004031931E+00  3.270788080314E+00  3.310037537278E+00
  3.349757987726E+00  3.389955083578E+00  3.430634544581E+00  3.471802159116E+00
  3.513463785026E+00  3.555625350446E+00  3.598292854651E+00  3.641472368907E+00
  3.685170037334E+00  3.729392077782E+00  3.774144782715E+00  3.819434520108E+00
  3.865267734349E+00  3.911650947161E+00  3.958590758527E+00  4.006093847630E+00
  4.054166973801E+00  4.102816977487E+00  4.152050781217E+00  4.201875390591E+00
  4.252297895278E+00  4.303325470022E+00  4.354965375662E+00  4.407224960170E+00
  4.460111659692E+00  4.513632999608E+00  4.567796595604E+00  4.622610154751E+00
  4.678081476608E+00  4.734218454327E+00  4.791029075779E+00  4.848521424688E+00
  4.906703681785E+00  4.965584125966E+00  5.025171135478E+00  5.085473189103E+00
  5.146498867373E+00  5.208256853781E+00  5.270755936027E+00  5.334005007259E+00
  5.398013067346E+00  5.462789224154E+00  5.528342694844E+00  5.594682807182E+00
  5.661819000868E+00  5.729760828879E+00  5.798517958825E+00  5.868100174331E+00
  5.938517376423E+00  6.009779584940E+00  6.081896939959E+00  6.154879703239E+00
  6.228738259678E+00  6.303483118794E+00  6.379124916219E+00  6.455674415214E+00
  6.533142508197E+00  6.611540218295E+00  6.690878700915E+00  6.771169245326E+00
  6.852423276269E+00  6.934652355585E+00  7.017868183852E+00  7.102082602058E+00
  7.187307593283E+00  7.273555284402E+00  7.360837947815E+00  7.449168003189E+00
  7.538558019227E+00  7.629020715458E+00  7.720568964043E+00  7.813215791612E+00
  7.906974381111E+00  8.001858073684E+00  8.097880370569E+00  8.195054935015E+00
  8.293395594236E+00  8.392916341366E+00  8.493631337463E+00  8.595554913512E+00
  8.698701572474E+00  8.803085991344E+00  8.908723023240E+00  9.015627699519E+00
  9.123815231913E+00  9.233301014696E+00  9.344100626873E+00  9.456229834395E+00
  9.569704592408E+00  9.684541047517E+00  9.800755540087E+00  9.918364606568E+00
  1.003738498185E+01  1.015783360163E+01  1.027972760485E+01  1.040308433611E+01
  1.052792134814E+01  1.065425640432E+01  1.078210748117E+01  1.091149277094E+01
  1.104243068419E+01  1.117493985241E+01  1.130903913063E+01  1.144474760020E+01
  1.158208457140E+01  1.172106958626E+01  1.186172242130E+01  1.200406309035E+01
  1.214811184744E+01  1.229388918961E+01  1.244141585988E+01  1.259071285020E+01
  1.274180140440E+01  1.289470302125E+01  1.304943945751E+01  1.320603273100E+01
  1.336450512377E+01  1.352487918526E+01  1.368717773548E+01  1.385142386831E+01
  1.401764095473E+01  1.418585264618E+01  1.435608287794E+01  1.452835587247E+01
  1.470269614294E+01  1.487912849666E+01  1.505767803862E+01  1.523837017508E+01
  1.542123061718E+01  1.560628538459E+01  1.579356080920E+01  1.598308353891E+01
  1.617488054138E+01  1.636897910788E+01  1.656540685717E+01  1.676419173946E+01
  1.696536204033E+01  1.716894638481E+01  1.737497374143E+01  1.758347342633E+01
  1.779447510744E+01  1.800800880873E+01  1.822410491444E+01  1.844279417341E+01
  1.866410770349E+01  1.888807699593E+01  1.911473391989E+01  1.934411072692E+01
  1.957624005565E+01  1.981115493632E+01  2.004888879555E+01  2.028947546110E+01
  2.053294916663E+01  2.077934455663E+01  2.102869669131E+01  2.128104105161E+01
  2.153641354422E+01  2.179485050676E+01  2.205638871284E+01  2.232106537739E+01
  2.258891816192E+01  2.285998517986E+01  2.313430500202E+01  2.341191666205E+01
  2.369285966199E+01  2.397717397793E+01  2.426490006567E+01  2.455607886646E+01
  2.485075181285E+01  2.514896083461E+01  2.545074836462E+01  2.575615734500E+01
  2.606523123314E+01  2.637801400794E+01  2.669455017603E+01  2.701488477814E+01
  2.733906339548E+01  2.766713215623E+01  2.799913774210E+01  2.833512739501E+01
  2.867514892375E+01  2.901925071083E+01  2.936748171936E+01  2.971989150000E+01
  3.007653019800E+01  3.043744856037E+01  3.080269794310E+01  3.117233031841E+01
  3.154639828223E+01  3.192495506162E+01  3.230805452236E+01  3.269575117663E+01
  3.308810019075E+01  3.348515739304E+01  3.388697928175E+01  3.429362303313E+01
  3.470514650953E+01  3.512160826765E+01  3.554306756686E+01  3.596958437766E+01
  3.640121939019E+01  3.683803402287E+01  3.728009043115E+01  3.772745151632E+01
  3.818018093452E+01  3.863834310573E+01  3.910200322300E+01  3.957122726168E+01
  4.004608198882E+01  4.052663497268E+01  4.101295459236E+01  4.150511004746E+01
  4.200317136803E+01  4.250720942445E+01  4.301729593754E+01  4.353350348879E+01
  4.405590553066E+01
</grid-data>
</grid>
<valence-charge total-charge="10" is-unscreening-charge="yes"
 rescaled-to-z-pseudo="no">
<radfunc>
<data npts="457">
  1.541221431644E-03  1.546059541629E-03  1.560558136837E-03  1.584866463457E-03
  1.620805967610E-03  1.667131713746E-03  1.726935434433E-03  1.796466724839E-03
  1.875989923628E-03  1.970525958365E-03  2.079413127109E-03  2.200573635536E-03
  2.350919455687E-03  2.512533395990E-03  2.678686422833E-03  2.875924433928E-03
  3.110852844380E-03  3.341291398591E-03  3.609405937182E-03  3.922242900128E-03
  4.288348635648E-03  4.626500994216E-03  5.011710639591E-03  5.451441811247E-03
  5.954477001954E-03  6.531166227115E-03  7.193724931896E-03  7.755585452594E-03
  8.380859520201E-03  9.077545659308E-03  9.854730019178E-03  1.072273985702E-02
  1.169331875834E-02  1.277982657410E-02  1.399746742566E-02  1.536354953346E-02
  1.689778106456E-02  1.862260666369E-02  1.989085886978E-02  2.126354021497E-02
  2.274984680464E-02  2.435980753772E-02  2.610435872087E-02  2.799542496170E-02
  3.004600678141E-02  3.227027539939E-02  3.468367515158E-02  3.730303400803E-02
  4.014668265204E-02  4.323458257239E-02  4.658846359862E-02  5.023197127488E-02
  5.419082441806E-02  5.849298313723E-02  6.316882749944E-02  6.825134690845E-02
  7.377634011138E-02  7.978262555939E-02  8.631226161396E-02  9.341077580447E-02
  1.011274019959E-01  1.095153239098E-01  1.186319229447E-01  1.285390276581E-01
  1.393031615824E-01  1.509957852461E-01  1.636935273455E-01  1.704447306220E-01
  1.774783989427E-01  1.848056558660E-01  1.924379833565E-01  2.003872257624E-01
  2.086655930311E-01  2.172856630680E-01  2.262603831334E-01  2.356030701656E-01
  2.453274099114E-01  2.554474547344E-01  2.659776199659E-01  2.769326786516E-01
  2.883277545405E-01  3.001783131509E-01  3.125001507416E-01  3.253093810044E-01
  3.386224192861E-01  3.524559641384E-01  3.668269759847E-01  3.817526526830E-01
  3.972504017577E-01  4.133378090626E-01  4.300326036302E-01  4.473526184576E-01
  4.653157469714E-01  4.839398949104E-01  5.032429273613E-01  5.232426106825E-01
  5.439565490493E-01  5.654021153580E-01  5.875963762307E-01  6.105560108716E-01
  6.342972235339E-01  6.588356493740E-01  6.841862534862E-01  7.103632229341E-01
  7.373798516212E-01  7.652484178777E-01  7.939800546760E-01  8.235846124317E-01
  8.540705143978E-01  8.854446047151E-01  9.177119892456E-01  9.508758693885E-01
  9.849373691545E-01  1.019895355864E+00  1.055746254925E+00  1.092483859260E+00
  1.130099134041E+00  1.168580017547E+00  1.207911219047E+00  1.248074014769E+00
  1.289046043163E+00  1.330801100795E+00  1.373308940377E+00  1.416535072595E+00
  1.460440573562E+00  1.504981899866E+00  1.550110713381E+00  1.595773718134E+00
  1.641912511693E+00  1.688463453694E+00  1.735357554238E+00  1.782520385036E+00
  1.829872016265E+00  1.877326982187E+00  1.924794278630E+00  1.972177395480E+00
  2.019374387277E+00  2.066277985002E+00  2.112775752030E+00  2.158750287064E+00
  2.204079476708E+00  2.248636800037E+00  2.292291687251E+00  2.334909934090E+00
  2.376354173260E+00  2.416484403597E+00  2.455158577138E+00  2.492233243585E+00
  2.527564250973E+00  2.561007500570E+00  2.592419753185E+00  2.621659483239E+00
  2.648587775977E+00  2.673069262324E+00  2.694973084883E+00  2.714173887654E+00
  2.730552821136E+00  2.743998553538E+00  2.754408278064E+00  2.761688705453E+00
  2.765757030328E+00  2.766541859432E+00  2.763984089468E+00  2.758037722080E+00
  2.748670603604E+00  2.735865077400E+00  2.719618537142E+00  2.699943870132E+00
  2.676869780724E+00  2.650440985189E+00  2.620718270838E+00  2.587778413966E+00
  2.551713953105E+00  2.512632816210E+00  2.470657802651E+00  2.425925923242E+00
  2.378587603958E+00  2.328805761328E+00  2.276754759839E+00  2.222619263763E+00
  2.166592997820E+00  2.108877432684E+00  2.049680412661E+00  1.989214743831E+00
  1.927696761395E+00  1.865344895107E+00  1.802378251244E+00  1.739015228816E+00
  1.675472186484E+00  1.611961895904E+00  1.548690949113E+00  1.485856763174E+00
  1.423646520046E+00  1.362236885578E+00  1.301793249210E+00  1.242469240129E+00
  1.184402277235E+00  1.127701184646E+00  1.072450398405E+00  1.018730051888E+00
  9.666062531323E-01  9.161344528192E-01  8.673594503200E-01  8.203158940105E-01
  7.750287784306E-01  7.315139670805E-01  6.897787358438E-01  6.498223319315E-01
  6.116365434813E-01  5.752062752104E-01  5.405101258161E-01  5.075209629402E-01
  4.762064922010E-01  4.465298165873E-01  4.184499832286E-01  3.919225143003E-01
  3.668999201897E-01  3.433321919762E-01  3.211672715683E-01  3.003514977577E-01
  2.808300267968E-01  2.625472263990E-01  2.454470423417E-01  2.294733371268E-01
  2.145702004198E-01  2.006822312351E-01  1.877547920726E-01  1.757342354231E-01
  1.645681032501E-01  1.542053002283E-01  1.445962416597E-01  1.356929771142E-01
  1.274492909467E-01  1.198207809322E-01  1.127649163477E-01  1.062410769155E-01
  1.002105741190E-01  9.463665650701E-02  8.948450072674E-02  8.472119014823E-02
  8.031568305413E-02  7.623877243933E-02  7.246303945909E-02  6.896280245173E-02
  6.571406322117E-02  6.269445189843E-02  5.988317124420E-02  5.726094076976E-02
  5.480994062018E-02  5.251375485530E-02  5.035731362766E-02  4.832683379568E-02
  4.640975769060E-02  4.459469001361E-02  4.287133310848E-02  4.123042107904E-02
  3.966365336888E-02  3.816362848429E-02  3.672377853132E-02  3.533830517370E-02
  3.400211752249E-02  3.271077235987E-02  3.146041699268E-02  3.024773493423E-02
  2.906989453089E-02  2.792450058182E-02  2.680954894768E-02  2.572338410218E-02
  2.466465954978E-02  2.363230100887E-02  2.262547224298E-02  2.164354341019E-02
  2.068606179300E-02  1.975272476669E-02  1.884335486395E-02  1.795787679691E-02
  1.709629630508E-02  1.625868070949E-02  1.544514106836E-02  1.465581584824E-02
  1.389085604554E-02  1.315041171437E-02  1.243461987696E-02  1.174359380990E-02
  1.107741371124E-02  1.043611875894E-02  9.819700569271E-03  9.228098055103E-03
  8.661193668412E-03  8.118810992080E-03  7.600713623422E-03  7.106605276144E-03
  6.636130966717E-03  6.188879226350E-03  5.764385152477E-03  5.362134181820E-03
  4.981566437689E-03  4.622081509413E-03  4.283043527742E-03  3.963786409398E-03
  3.663619155765E-03  3.381831104255E-03  3.117697045247E-03  2.870482132112E-03
  2.639446526138E-03  2.423849731662E-03  2.222954589233E-03  2.036030905912E-03
  1.862358711712E-03  1.701231139809E-03  1.551956935343E-03  1.413862603614E-03
  1.286294213240E-03  1.168618873486E-03  1.060225907675E-03  9.605277463943E-04
  8.689605652654E-04  7.849846924060E-04  7.080848105754E-04  6.377699783317E-04
  5.735734935262E-04  5.150526211382E-04  4.617882059191E-04  4.133841886197E-04
  3.694670427913E-04  3.296851473365E-04  2.937081081927E-04  2.612260408005E-04
  2.319488233862E-04  2.056053295959E-04  1.819426476807E-04  1.607252922595E-04
  1.417344136845E-04  1.247670091943E-04  1.096351393580E-04  9.616515276688E-05
  8.419692150792E-05  7.358308962458E-05  6.418833652550E-05  5.588865710902E-05
  4.857066022130E-05  4.213088693664E-05  3.647515003075E-05  3.151789589944E-05
  2.718159005046E-05  2.339612716153E-05  2.009826654990E-05  1.723109374010E-05
  1.474350864738E-05  1.258974071868E-05  1.072889119343E-05  9.124502467753E-06
  7.744154370805E-06  6.559086994982E-06  5.543849565685E-06  4.675974693615E-06
  3.935677225352E-06  3.305576797668E-06  2.770443108341E-06  2.316962841524E-06
  1.933527128788E-06  1.610038387112E-06  1.337735351430E-06  1.109035110640E-06
  9.173909608132E-07  7.571649061473E-07  6.235136655099E-07  5.122870784183E-07
  4.199378476279E-07  3.434416044952E-07  2.802263366094E-07  2.281102735168E-07
  1.852473845282E-07  1.500797015612E-07  1.212957388198E-07  9.779433908185E-08
  7.865333281292E-08  6.310245073031E-08  5.049998240032E-08  4.031272266148E-08
  3.209879391590E-08  2.549297549030E-08  2.019421127843E-08  1.595500373608E-08
  1.257243605843E-08  9.880595114200E-09  7.744195563319E-09  6.053230686588E-09
  4.718497968139E-09  3.667867565423E-09  2.843179654156E-09  2.197672426070E-09
  1.693856422811E-09  1.301763082560E-09  9.975060230948E-10  7.621028440164E-10
  5.805132500158E-10  4.408562149380E-10  3.337748505888E-10  2.519227320115E-10
  1.895497688910E-10  1.421693971855E-10  1.062919826066E-10  7.921195540064E-11
  5.883840262223E-11  4.356069023301E-11  3.214222604614E-11  2.363675216526E-11
  1.732261244876E-11  1.265131152983E-11  9.207397032059E-12  6.677281529418E-12
  4.825097405123E-12  3.474064645658E-12  2.492164458761E-12  1.781163623161E-12
  1.268236710297E-12  8.995949705974E-13  6.356593878485E-13  4.474174850006E-13
  3.136841032663E-13  2.190498232043E-13  1.523504161934E-13  1.055295193497E-13
  7.279688892854E-14  5.000793484401E-14  3.420823646022E-14  2.330055497777E-14
  1.580241749068E-14  1.067038468769E-14  7.173204506727E-15  4.800649133403E-15
  3.198284371807E-15  2.121001587925E-15  1.400063961580E-15  9.198427456229E-16
  6.014696112636E-16  3.914023645366E-16  2.534648894634E-16  1.633320545174E-16
  1.047269906249E-16  6.681183706885E-17  4.240621031001E-17  2.677689092900E-17
  1.681970260495E-17  1.050937265023E-17  6.531430091546E-18  4.037243350924E-18
  2.481866542634E-18  1.517260365656E-18  9.223610655472E-19  5.575342131133E-19
  3.350751173042E-19  0.000000000000E+00  0.000000000000E+00  0.000000000000E+00
  0.000000000000E+00
</data>
</radfunc>
</valence-charge>
<pseudocore-charge matching-radius="1.25953838132"
 number-of-continuous-derivatives="4">
<annotation model-charge-form="Teter function with specified parameters" />
<radfunc>
<data npts="290">
  1.468176526932E+01  1.468129166932E+01  1.467987583615E+01  1.467751346117E+01
  1.467404644334E+01  1.466962161473E+01  1.466398052568E+01  1.465751864241E+01
  1.465024994549E+01  1.464176947452E+01  1.463220533092E+01  1.462180349891E+01
  1.460922356345E+01  1.459607489937E+01  1.458292927086E+01  1.456777437803E+01
  1.455030555581E+01  1.453372958393E+01  1.451507475812E+01  1.449408338227E+01
  1.447046662895E+01  1.444946682504E+01  1.442639727232E+01  1.440105760260E+01
  1.437322881223E+01  1.434267169025E+01  1.430912514891E+01  1.428183309466E+01
  1.425257041087E+01  1.422119913052E+01  1.418757229195E+01  1.415153345630E+01
  1.411291621604E+01  1.407154369777E+01  1.402722806323E+01  1.397977001315E+01
  1.392895829964E+01  1.387456925409E+01  1.383620621723E+01  1.379607505079E+01
  1.375409972990E+01  1.371020150894E+01  1.366429888137E+01  1.361630754592E+01
  1.356614038005E+01  1.351370742187E+01  1.345891586156E+01  1.340167004378E+01
  1.334187148229E+01  1.327941888846E+01  1.321420821525E+01  1.314613271849E+01
  1.307508303739E+01  1.300094729630E+01  1.292361123012E+01  1.284295833553E+01
  1.275887005071E+01  1.267122596623E+01  1.257990406988E+01  1.248478102858E+01
  1.238573251035E+01  1.228263354974E+01  1.217535896004E+01  1.206378379581E+01
  1.194778386931E+01  1.182723632443E+01  1.170202027178E+01  1.163762448573E+01
  1.157201748858E+01  1.150518504516E+01  1.143711318687E+01  1.136778823969E+01
  1.129719685333E+01  1.122532603163E+01  1.115216316415E+01  1.107769605910E+01
  1.100191297748E+01  1.092480266848E+01  1.084635440626E+01  1.076655802799E+01
  1.068540397318E+01  1.060288332439E+01  1.051898784921E+01  1.043371004355E+01
  1.034704317627E+01  1.025898133507E+01  1.016951947365E+01  1.007865346012E+01
  9.986380126656E+00  9.892697320289E+00  9.797603954858E+00  9.701100064047E+00
  9.603186855455E+00  9.503866765615E+00  9.403143515918E+00  9.301022169327E+00
  9.197509187814E+00  9.092612490390E+00  8.986341511642E+00  8.878707260620E+00
  8.769722379964E+00  8.659401205104E+00  8.547759823372E+00  8.434816132860E+00
  8.320589900818E+00  8.205102821406E+00  8.088378572558E+00  7.970442871754E+00
  7.851323530417E+00  7.731050506706E+00  7.609655956387E+00  7.487174281521E+00
  7.363642176630E+00  7.239098672025E+00  7.113585173955E+00  6.987145501203E+00
  6.859825917768E+00  6.731675161242E+00  6.602744466464E+00  6.473087584058E+00
  6.342760793405E+00  6.211822909618E+00  6.080335284073E+00  5.948361798035E+00
  5.815968848911E+00  5.683225328678E+00  5.550202593996E+00  5.416974427551E+00
  5.283616990167E+00  5.150208763214E+00  5.016830480881E+00  4.883565051873E+00
  4.750497470120E+00  4.617714714112E+00  4.485305634484E+00  4.353360829532E+00
  4.221972508365E+00  4.091234341442E+00  3.961241298285E+00  3.832089472250E+00
  3.703875892240E+00  3.576698321370E+00  3.450655042645E+00  3.325844631772E+00
  3.202365717366E+00  3.080316728861E+00  2.959795632546E+00  2.840899656292E+00
  2.723725003589E+00  2.608366557680E+00  2.494917576689E+00  2.383469380760E+00
  2.274111032373E+00  2.166929011127E+00  2.062006884424E+00  1.959424975625E+00
  1.859260031390E+00  1.761584890037E+00  1.666468152911E+00  1.573973860847E+00
  1.484161177963E+00  1.397084085100E+00  1.312791085339E+00  1.231324924103E+00
  1.152722326404E+00  1.077013753871E+00  1.004223184181E+00  9.343679155485E-01
  8.674583988709E-01  8.034981001004E-01  7.424833952973E-01  6.844035007146E-01
  6.292404400969E-01  5.769690511849E-01  5.275570331815E-01  4.809650366627E-01
  4.371467971045E-01  3.960493128468E-01  3.576130679280E-01  3.217722997954E-01
  2.884553114478E-01  2.575848270726E-01  2.290783897330E-01  2.028487991309E-01
  1.788045869243E-01  1.568505265326E-01  1.368881738143E-01  1.188164344673E-01
  1.025321534889E-01  8.793072154946E-02  7.490669269824E-02  6.335440743152E-02
  5.316861483761E-02  4.424508728980E-02  3.648122100407E-02  2.977661572168E-02
  2.403362682585E-02  1.915788336466E-02  1.505876573476E-02  1.164983718479E-02
  8.849223825630E-03  6.579938483667E-03  4.770144498501E-03  3.353356439177E-03
  2.268575681203E-03  1.460359834663E-03  8.788261228175E-04  4.795899582782E-04
  2.236411252556E-04  7.716112359162E-05  1.128633409973E-05  1.822694452792E-06
  2.891849982117E-05  7.670273276220E-05  1.328969545294E-04  1.884092301417E-04
  2.369187916372E-04  2.744601527795E-04  2.990151654128E-04  3.101210514319E-04
  3.085017617804E-04  2.957291204321E-04  2.739191309606E-04  2.454675884642E-04
  2.128277903228E-04  1.783317220880E-04  1.440546612449E-04  1.117217461219E-04
  8.265375497456E-05  5.774818442635E-05  3.749075550936E-05  2.199175062011E-05
  1.104112688725E-05  4.176179604588E-06  7.556484007673E-07  3.455855300101E-08
  1.234744909062E-06  3.606876319269E-06  6.480831517454E-06  9.302410085863E-06
  1.165552496322E-05  1.327014408110E-05  1.401725878285E-05  1.389299372062E-05
  1.299458705142E-05  1.149132723543E-05  9.593619062373E-06  7.523173068134E-06
  5.486896544679E-06  3.656457321266E-06  2.154755406932E-06  1.049744818948E-06
  3.552748179014E-07  3.793947397017E-08  2.839977769132E-08  2.353193275538E-07
  5.599571017501E-07  9.095884103124E-07  1.208252397619E-06  1.403803738451E-06
  1.470812873399E-06  1.409439451162E-06  1.240923639712E-06  1.000735025657E-06
  7.306422618990E-07  4.709961632629E-07  2.543599749211E-07  1.013055068261E-07
  1.877762737836E-08  0.000000000000E+00  0.000000000000E+00  0.000000000000E+00
  0.000000000000E+00  0.000000000000E+00  0.000000000000E+00  0.000000000000E+00
  0.000000000000E+00  0.000000000000E+00  0.000000000000E+00  0.000000000000E+00
  0.000000000000E+00  0.000000000000E+00  0.000000000000E+00  0.000000000000E+00
  0.000000000000E+00  0.000000000000E+00  0.000000000000E+00  0.000000000000E+00
  0.000000000000E+00  0.000000000000E+00
</data>
</radfunc>
</pseudocore-charge>
<semilocal-potentials set="scalar_relativistic">
<slps n="5" l="s" rc="1.95835025430">
<radfunc>
<data npts="290">
  1.384934711449E+02  1.383097723146E+02  1.377632468747E+02  1.368601146967E+02
  1.355541696699E+02  1.339202539602E+02  1.318888037440E+02  1.296299751212E+02
  1.271721400889E+02  1.244099080490E+02  1.214229764504E+02  1.183190061019E+02
  1.147521384772E+02  1.112262368520E+02  1.078912978618E+02  1.042631130987E+02
  1.003433148041E+02  9.685984474564E+01  9.318825772043E+01  8.934107465287E+01
  8.533465057015E+01  8.202823755014E+01  7.864459912536E+01  7.519691780326E+01
  7.169947659567E+01  6.816743757068E+01  6.461658834971E+01  6.195080927652E+01
  5.929036763473E+01  5.664205505731E+01  5.401254355896E+01  5.140831956888E+01
  4.883562191699E+01  4.630038500016E+01  4.380818817209E+01  4.136421218604E+01
  3.897320328664E+01  3.663944530496E+01  3.511731031630E+01  3.362332466901E+01
  3.215839464254E+01  3.072332805816E+01  2.931883484996E+01  2.794552821379E+01
  2.660392629108E+01  2.529445434151E+01  2.401744735560E+01  2.277315305744E+01
  2.156173524646E+01  2.038327742776E+01  1.923778668117E+01  1.812519772041E+01
  1.704537709615E+01  1.599812749875E+01  1.498319211971E+01  1.400025903346E+01
  1.304896556491E+01  1.212890261124E+01  1.123961889031E+01  1.038062509113E+01
  9.551397906010E+00  8.751383926703E+00  7.980003390895E+00  7.236653768100E+00
  6.520713177342E+00  5.831543631787E+00  5.168494108209E+00  4.846558061178E+00
  4.530903441687E+00  4.221446466148E+00  3.918103048256E+00  3.620788875018E+00
  3.329419480349E+00  3.043910316266E+00  2.764176821814E+00  2.490134489734E+00
  2.221698931029E+00  1.958785937470E+00  1.701311542166E+00  1.449192078279E+00
  1.202344236011E+00  9.606851179479E-01  7.241322928751E-01  4.926038481906E-01
  2.660184410063E-01  4.429534806977E-02 -1.726454853863E-01 -3.848833977621E-01
 -5.924969640392E-01 -7.955639494753E-01 -9.941612639190E-01 -1.188364916647E+00
 -1.378249971617E+00 -1.563890503049E+00 -1.745359551239E+00 -1.922729078525E+00
 -2.096069925335E+00 -2.265451766251E+00 -2.430943066034E+00 -2.592611035580E+00
 -2.750521587770E+00 -2.904739293210E+00 -3.055327335860E+00 -3.202347468584E+00
 -3.345859968655E+00 -3.485923593282E+00 -3.622595535232E+00 -3.755931378678E+00
 -3.885985055365E+00 -4.012808801282E+00 -4.136453113990E+00 -4.256966710818E+00
 -4.374396488154E+00 -4.488787482074E+00 -4.600182830568E+00 -4.708623737683E+00
 -4.814149439867E+00 -4.916797174853E+00 -5.016602153441E+00 -5.113597534538E+00
 -5.207814403789E+00 -5.299281756288E+00 -5.388026483657E+00 -5.474073365969E+00
 -5.557445068943E+00 -5.638162146817E+00 -5.716243051381E+00 -5.791704147643E+00
 -5.864559736622E+00 -5.934822085829E+00 -6.002501467986E+00 -6.067606208640E+00
 -6.130142743321E+00 -6.190115685022E+00 -6.247527902766E+00 -6.302380612169E+00
 -6.354673478905E+00 -6.404404736067E+00 -6.451571316435E+00 -6.496169000708E+00
 -6.538192582688E+00 -6.577636052403E+00 -6.614492798025E+00 -6.648755827279E+00
 -6.680418008836E+00 -6.709472333877E+00 -6.735912197637E+00 -6.759731700296E+00
 -6.780925966034E+00 -6.799491478399E+00 -6.815426429451E+00 -6.828731079241E+00
 -6.839408121324E+00 -6.847463048936E+00 -6.852904515396E+00 -6.855744681119E+00