<?xml version="1.0" encoding="UTF-8" ?>
<psml version="1.1" energy_unit="hartree" length_unit="bohr"
 uuid="54014320-43c4-11e8-5705-d831ebfffd07"
 xmlns="http://esl.cecam.org/PSML/ns/1.1">
<provenance creator="ONCVPSP-3.3.0+psml-3.3.0-73 (fully-relativistic)"
 date="2018-04-19">
<annotation action="semilocal-pseudopotential-generation"
 action-cont="projectors-generation" />
<input-file name="oncvpsp-input">
<![CDATA[# atsym z nc nv iexc psfile
Ba 56 9 3 4 both
# n l f
1 0 2.0
2 0 2.0
2 1 6.0
3 0 2.0
3 1 6.0
3 2 10.0
4 0 2.0
4 1 6.0
4 2 10.0
5 0 2.0
5 1 6.0
6 0 2.0
# lmax
2
# l rc ep ncon nbas qcut
0 2.15 0.0 4 7 5.2
1 1.9 0.0 4 8 6.6
2 2.15 0.0 4 9 6.6
# lloc lpopt rc5 dvloc0
4 5 1.9 0.0
# l nproj debl
0 2 1.0
1 2 2.5
2 2 3.0
# icmod fcfact
3 5 1.25
# epsh1 epsh2 depsh
-12.0 12.0 0.02
# rlmax drl
6.0 0.01
 0
]]>
</input-file>
</provenance>
<pseudo-atom-spec atomic-label="Ba" atomic-number="56" z-pseudo="10"
 flavor="Hamann&apos;s oncvpsp" relativity="dirac" spin-dft="no"
 core-corrections="yes">
<annotation pseudo-energy="-25.6293576671" />
<exchange-correlation>
<annotation oncvpsp-xc-code="4" oncvpsp-xc-type="GGA -- Perdew-Burke-Ernzerhof" />
<libxc-info number-of-functionals="2">
<functional name="Perdew, Burke &amp; Ernzerhof (GGA)" type="exchange" id="101" />
<functional name="Perdew, Burke &amp; Ernzerhof (GGA)" type="correlation"
 id="130" />
</libxc-info>
</exchange-correlation>
<valence-configuration total-valence-charge="10">
<shell n="5" l="s" occupation="2" />
<shell n="5" l="p" occupation="6" />
<shell n="6" l="s" occupation="2" />
</valence-configuration>
</pseudo-atom-spec>
<grid npts="457">
<annotation type="sampled from oncvpsp log grid"
 recipe="r(i:1..N) = r1*exp(a*(i-1)) + r=0; resampled"
 recipe-cont="r1: scale; a: step" scale="0.892857142857E-05"
 step="0.119285708653E-01" delta="0.500000000000E-02" rmax="44.0559055307" />
<grid-data>
  0.000000000000E+00  5.030765996809E-03  1.004856027829E-02  1.507444276529E-02
  2.031206510006E-02  2.547908439618E-02  3.083699266043E-02  3.600963173750E-02
  4.105861707579E-02  4.626040627112E-02  5.150318121329E-02  5.666020677615E-02
  6.233360651298E-02  6.776194178895E-02  7.278953042278E-02  7.819014035445E-02
  8.399144785162E-02  8.915334250897E-02  9.463247370808E-02  1.004483379769E-01
  1.066216300490E-01  1.118323285593E-01  1.172976787660E-01  1.230301257351E-01
  1.290427227344E-01  1.353491609572E-01  1.419638006982E-01  1.471360711987E-01
  1.524967867957E-01  1.580528132467E-01  1.638112664542E-01  1.697795215795E-01
  1.759652224887E-01  1.823762915423E-01  1.890209397420E-01  1.959076772469E-01
  2.030453242728E-01  2.104430223891E-01  2.155239587216E-01  2.207275691810E-01
  2.260568156113E-01  2.315147313674E-01  2.371044230416E-01  2.428290722315E-01
  2.486919373514E-01  2.546963554868E-01  2.608457442937E-01  2.671436039439E-01
  2.735935191176E-01  2.801991610431E-01  2.869642895874E-01  2.938927553952E-01
  3.009885020814E-01  3.082555684757E-01  3.156980909209E-01  3.233203056281E-01
  3.311265510872E-01  3.391212705367E-01  3.473090144925E-01  3.556944433384E-01
  3.642823299784E-01  3.730775625534E-01  3.820851472237E-01  3.913102110182E-01
  4.007580047531E-01  4.104339060198E-01  4.203434222468E-01  4.253875433137E-01
  4.304921938335E-01  4.356581001595E-01  4.408859973614E-01  4.461766293297E-01
  4.515307488817E-01  4.569491178683E-01  4.624325072827E-01  4.679816973701E-01
  4.735974777385E-01  4.792806474714E-01  4.850320152411E-01  4.908523994239E-01
  4.967426282170E-01  5.027035397556E-01  5.087359822327E-01  5.148408140195E-01
  5.210189037877E-01  5.272711306332E-01  5.335983842008E-01  5.400015648112E-01
  5.464815835889E-01  5.530393625920E-01  5.596758349431E-01  5.663919449624E-01
  5.731886483020E-01  5.800669120816E-01  5.870277150266E-01  5.940720476069E-01
  6.012009121782E-01  6.084153231243E-01  6.157163070018E-01  6.231049026858E-01
  6.305821615181E-01  6.381491474563E-01  6.458069372257E-01  6.535566204725E-01
  6.613992999181E-01  6.693360915171E-01  6.773681246153E-01  6.854965421107E-01
  6.937225006161E-01  7.020471706235E-01  7.104717366709E-01  7.189973975110E-01
  7.276253662811E-01  7.363568706765E-01  7.451931531246E-01  7.541354709621E-01
  7.631850966137E-01  7.723433177730E-01  7.816114375863E-01  7.909907748373E-01
  8.004826641354E-01  8.100884561050E-01  8.198095175783E-01  8.296472317892E-01
  8.396029985707E-01  8.496782345535E-01  8.598743733682E-01  8.701928658486E-01
  8.806351802388E-01  8.912028024016E-01  9.018972360304E-01  9.127200028628E-01
  9.236726428972E-01  9.347567146119E-01  9.459737951873E-01  9.573254807295E-01
  9.688133864983E-01  9.804391471363E-01  9.922044169019E-01  1.004110869905E+00
  1.016160200344E+00  1.028354122748E+00  1.040694372221E+00  1.053182704687E+00
  1.065820897144E+00  1.078610747909E+00  1.091554076884E+00  1.104652725807E+00
  1.117908558516E+00  1.131323461219E+00  1.144899342753E+00  1.158638134866E+00
  1.172541792485E+00  1.186612293995E+00  1.200851641522E+00  1.215261861221E+00
  1.229845003555E+00  1.244603143598E+00  1.259538381321E+00  1.274652841897E+00
  1.289948676000E+00  1.305428060112E+00  1.321093196833E+00  1.336946315195E+00
  1.352989670978E+00  1.369225547029E+00  1.385656253594E+00  1.402284128637E+00
  1.419111538180E+00  1.436140876639E+00  1.453374567158E+00  1.470815061964E+00
  1.488464842708E+00  1.506326420820E+00  1.524402337870E+00  1.542695165924E+00
  1.561207507916E+00  1.579941998011E+00  1.598901301987E+00  1.618088117611E+00
  1.637505175022E+00  1.657155237122E+00  1.677041099968E+00  1.697165593167E+00
  1.717531580285E+00  1.738141959249E+00  1.758999662760E+00  1.780107658713E+00
  1.801468950617E+00  1.823086578025E+00  1.844963616961E+00  1.867103180365E+00
  1.889508418529E+00  1.912182519551E+00  1.935128709786E+00  1.958350254303E+00
  1.981850457355E+00  2.005632662843E+00  2.029700254797E+00  2.054056657855E+00
  2.078705337749E+00  2.103649801802E+00  2.128893599424E+00  2.154440322617E+00
  2.180293606488E+00  2.206457129766E+00  2.232934615323E+00  2.259729830707E+00
  2.286846588676E+00  2.314288747740E+00  2.342060212713E+00  2.370164935265E+00
  2.398606914488E+00  2.427390197462E+00  2.456518879832E+00  2.485997106390E+00
  2.515829071666E+00  2.546019020526E+00  2.576571248773E+00  2.607490103758E+00
  2.638779985003E+00  2.670445344823E+00  2.702490688961E+00  2.734920577229E+00
  2.767739624155E+00  2.800952499645E+00  2.834563929641E+00  2.868578696797E+00
  2.903001641158E+00  2.937837660852E+00  2.973091712782E+00  3.008768813336E+00
  3.044874039096E+00  3.081412527565E+00  3.118389477896E+00  3.155810151630E+00
  3.193679873450E+00  3.232004031931E+00  3.270788080314E+00  3.310037537278E+00
  3.349757987726E+00  3.389955083578E+00  3.430634544581E+00  3.471802159116E+00
  3.513463785026E+00  3.555625350446E+00  3.598292854651E+00  3.641472368907E+00
  3.685170037334E+00  3.729392077782E+00  3.774144782715E+00  3.819434520108E+00
  3.865267734349E+00  3.911650947161E+00  3.958590758527E+00  4.006093847630E+00
  4.054166973801E+00  4.102816977487E+00  4.152050781217E+00  4.201875390591E+00
  4.252297895278E+00  4.303325470022E+00  4.354965375662E+00  4.407224960170E+00
  4.460111659692E+00  4.513632999608E+00  4.567796595604E+00  4.622610154751E+00
  4.678081476608E+00  4.734218454327E+00  4.791029075779E+00  4.848521424688E+00
  4.906703681785E+00  4.965584125966E+00  5.025171135478E+00  5.085473189103E+00
  5.146498867373E+00  5.208256853781E+00  5.270755936027E+00  5.334005007259E+00
  5.398013067346E+00  5.462789224154E+00  5.528342694844E+00  5.594682807182E+00
  5.661819000868E+00  5.729760828879E+00  5.798517958825E+00  5.868100174331E+00
  5.938517376423E+00  6.009779584940E+00  6.081896939959E+00  6.154879703239E+00
  6.228738259678E+00  6.303483118794E+00  6.379124916219E+00  6.455674415214E+00
  6.533142508197E+00  6.611540218295E+00  6.690878700915E+00  6.771169245326E+00
  6.852423276269E+00  6.934652355585E+00  7.017868183852E+00  7.102082602058E+00
  7.187307593283E+00  7.273555284402E+00  7.360837947815E+00  7.449168003189E+00
  7.538558019227E+00  7.629020715458E+00  7.720568964043E+00  7.813215791612E+00
  7.906974381111E+00  8.001858073684E+00  8.097880370569E+00  8.195054935015E+00
  8.293395594236E+00  8.392916341366E+00  8.493631337463E+00  8.595554913512E+00
  8.698701572474E+00  8.803085991344E+00  8.908723023240E+00  9.015627699519E+00
  9.123815231913E+00  9.233301014696E+00  9.344100626873E+00  9.456229834395E+00
  9.569704592408E+00  9.684541047517E+00  9.800755540087E+00  9.918364606568E+00
  1.003738498185E+01  1.015783360163E+01  1.027972760485E+01  1.040308433611E+01
  1.052792134814E+01  1.065425640432E+01  1.078210748117E+01  1.091149277094E+01
  1.104243068419E+01  1.117493985241E+01  1.130903913063E+01  1.144474760020E+01
  1.158208457140E+01  1.172106958626E+01  1.186172242130E+01  1.200406309035E+01
  1.214811184744E+01  1.229388918961E+01  1.244141585988E+01  1.259071285020E+01
  1.274180140440E+01  1.289470302125E+01  1.304943945751E+01  1.320603273100E+01
  1.336450512377E+01  1.352487918526E+01  1.368717773548E+01  1.385142386831E+01
  1.401764095473E+01  1.418585264618E+01  1.435608287794E+01  1.452835587247E+01
  1.470269614294E+01  1.487912849666E+01  1.505767803862E+01  1.523837017508E+01
  1.542123061718E+01  1.560628538459E+01  1.579356080920E+01  1.598308353891E+01
  1.617488054138E+01  1.636897910788E+01  1.656540685717E+01  1.676419173946E+01
  1.696536204033E+01  1.716894638481E+01  1.737497374143E+01  1.758347342633E+01
  1.779447510744E+01  1.800800880873E+01  1.822410491444E+01  1.844279417341E+01
  1.866410770349E+01  1.888807699593E+01  1.911473391989E+01  1.934411072692E+01
  1.957624005565E+01  1.981115493632E+01  2.004888879555E+01  2.028947546110E+01
  2.053294916663E+01  2.077934455663E+01  2.102869669131E+01  2.128104105161E+01
  2.153641354422E+01  2.179485050676E+01  2.205638871284E+01  2.232106537739E+01
  2.258891816192E+01  2.285998517986E+01  2.313430500202E+01  2.341191666205E+01
  2.369285966199E+01  2.397717397793E+01  2.426490006567E+01  2.455607886646E+01
  2.485075181285E+01  2.514896083461E+01  2.545074836462E+01  2.575615734500E+01
  2.606523123314E+01  2.637801400794E+01  2.669455017603E+01  2.701488477814E+01
  2.733906339548E+01  2.766713215623E+01  2.799913774210E+01  2.833512739501E+01
  2.867514892375E+01  2.901925071083E+01  2.936748171936E+01  2.971989150000E+01
  3.007653019800E+01  3.043744856037E+01  3.080269794310E+01  3.117233031841E+01
  3.154639828223E+01  3.192495506162E+01  3.230805452236E+01  3.269575117663E+01
  3.308810019075E+01  3.348515739304E+01  3.388697928175E+01  3.429362303313E+01
  3.470514650953E+01  3.512160826765E+01  3.554306756686E+01  3.596958437766E+01
  3.640121939019E+01  3.683803402287E+01  3.728009043115E+01  3.772745151632E+01
  3.818018093452E+01  3.863834310573E+01  3.910200322300E+01  3.957122726168E+01
  4.004608198882E+01  4.052663497268E+01  4.101295459236E+01  4.150511004746E+01
  4.200317136803E+01  4.250720942445E+01  4.301729593754E+01  4.353350348879E+01
  4.405590553066E+01
</grid-data>
</grid>
<valence-charge total-charge="10" is-unscreening-charge="yes"
 rescaled-to-z-pseudo="no">
<radfunc>
<data npts="457">
  4.743813461907E-03  4.751130430176E-03  4.773037766447E-03  4.809701789370E-03
  4.863760718617E-03  4.933187840892E-03  5.022404205636E-03  5.125574581420E-03
  5.242869162329E-03  5.381382891114E-03  5.539750512985E-03  5.714584827759E-03
  5.929648373673E-03  6.158677969480E-03  6.391998736969E-03  6.666383220941E-03
  6.989856034827E-03  7.303936965874E-03  7.665746689798E-03  8.083462599629E-03
  8.566868488193E-03  9.008706429131E-03  9.507154363028E-03  1.007046567164E-02
  1.070825806055E-02  1.143176122266E-02  1.225411188973E-02  1.294490857492E-02
  1.370737361943E-02  1.454992960759E-02  1.548209225481E-02  1.651462097490E-02
  1.765969059895E-02  1.893108715405E-02  2.034443097643E-02  2.191743083555E-02
  2.367017318087E-02  2.562545109149E-02  2.705412726494E-02  2.859275899932E-02
  3.025061180808E-02  3.203777152174E-02  3.396521724903E-02  3.604490049664E-02
  3.828983088400E-02  4.071416890336E-02  4.333332618411E-02  4.616407372541E-02
  4.922465855849E-02  5.253492928994E-02  5.611647095658E-02  5.999274958877E-02
  6.418926683037E-02  6.873372489512E-02  7.365620204844E-02  7.898933868546E-02
  8.476853392520E-02  9.103215245190E-02  9.782174110049E-02  1.051822543965E-01
  1.131622879145E-01  1.218143179004E-01  1.311949451096E-01  1.413651402216E-01
  1.523904875081E-01  1.643414226235E-01  1.772934594660E-01  1.841699298066E-01
  1.913273999860E-01  1.987768269547E-01  2.065295196139E-01  2.145971426494E-01
  2.229917196049E-01  2.317256350974E-01  2.408116360712E-01  2.502628319790E-01
  2.600926937719E-01  2.703150515688E-01  2.809440908724E-01  2.919943471844E-01
  3.034806988682E-01  3.154183580973E-01  3.278228597163E-01  3.407100478347E-01
  3.540960599648E-01  3.679973085029E-01  3.824304593476E-01  3.974124074394E-01
  4.129602489955E-01  4.290912502104E-01  4.458228121811E-01  4.631724318144E-01
  4.811576584647E-01  4.997960460504E-01  5.191051003918E-01  5.391022215143E-01
  5.598046406623E-01  5.812293517716E-01  6.033930371537E-01  6.263119871570E-01
  6.500020135767E-01  6.744783566065E-01  6.997555851384E-01  7.258474902447E-01
  7.527669717010E-01  7.805259174437E-01  8.091350758907E-01  8.386039211016E-01
  8.689405107976E-01  9.001513373226E-01  9.322411716855E-01  9.652129008941E-01
  9.990673588690E-01  1.033803151306E+00  1.069416474950E+00  1.105900931841E+00
  1.143247339201E+00  1.181443535730E+00  1.220474185232E+00  1.260320578576E+00
  1.300960435165E+00  1.342367705205E+00  1.384512374224E+00  1.427360271406E+00
  1.470872883508E+00  1.515007176203E+00  1.559715424920E+00  1.604945057327E+00
  1.650638509783E+00  1.696733100209E+00  1.743160919937E+00  1.789848747217E+00
  1.836717985155E+00  1.883684626911E+00  1.930659251057E+00  1.977547050009E+00
  2.024247894432E+00  2.070656436497E+00  2.116662254770E+00  2.162150043412E+00
  2.206999848200E+00  2.251087351657E+00  2.294284209349E+00  2.336458439061E+00
  2.377474864211E+00  2.417195612441E+00  2.455480669824E+00  2.492188490613E+00
  2.527176661816E+00  2.560302621296E+00  2.591424427312E+00  2.620401576729E+00
  2.647095868305E+00  2.671372306606E+00  2.693100041287E+00  2.712153335560E+00
  2.728412556787E+00  2.741765181261E+00  2.752106804361E+00  2.759342146427E+00
  2.763386043933E+00  2.764164414796E+00  2.761615186046E+00  2.755689171563E+00
  2.746350887170E+00  2.733579290171E+00  2.717368430329E+00  2.697727999425E+00
  2.674683766877E+00  2.648277889515E+00  2.618569084413E+00  2.585632654827E+00
  2.549560360662E+00  2.510460126586E+00  2.468455582855E+00  2.423685436181E+00
  2.376302670448E+00  2.326473579840E+00  2.274376639856E+00  2.220201224771E+00
  2.164146183292E+00  2.106418287323E+00  2.047230571908E+00  1.986800587411E+00
  1.925348587739E+00  1.863095680862E+00  1.800261969826E+00  1.737064713975E+00
  1.673716540882E+00  1.610423739700E+00  1.547384666009E+00  1.484788286857E+00
  1.422812892506E+00  1.361624998390E+00  1.301378475063E+00  1.242213997789E+00
  1.184258842839E+00  1.127626815471E+00  1.072418214557E+00  1.018719970521E+00
  9.666058821251E-01  9.161369643374E-01  8.673618963654E-01  8.203175612442E-01
  7.750297604215E-01  7.315143532932E-01  6.897786130684E-01  6.498217769854E-01
  6.116356269405E-01  5.752050609940E-01  5.405086715909E-01  5.075193204459E-01
  4.762047075833E-01  4.465279307373E-01  4.184480321275E-01  3.919205293517E-01
  3.668979285606E-01  3.433302169269E-01  3.211653327755E-01  3.003496116272E-01
  2.808282067647E-01  2.625454832208E-01  2.454453843673E-01  2.294717705614E-01
  2.145687295697E-01  2.006808587378E-01  1.877535191120E-01  1.757330619287E-01
  1.645670280810E-01  1.542043213417E-01  1.445953562649E-01  1.356921818126E-01
  1.274485818575E-01  1.198201538052E-01  1.127643666638E-01  1.062405999757E-01
  1.002101651217E-01  9.463631061553E-02  8.948421312741E-02  8.472095609929E-02
  8.031549792679E-02  7.623863175137E-02  7.246293890171E-02  6.896273791044E-02
  6.571403079122E-02  6.269444789546E-02  5.988319221075E-02  5.726098347817E-02
  5.481000207241E-02  5.251383228025E-02  5.035740447633E-02  4.832693573468E-02
  4.640986859434E-02  4.459480795546E-02  4.287145635121E-02  4.123054806475E-02
  3.966378270859E-02  3.816375894742E-02  3.672390903510E-02  3.533843477273E-02
  3.400224539847E-02  3.271089781158E-02  3.146053942632E-02  3.024785385413E-02
  2.907000953060E-02  2.792461133573E-02  2.680965520299E-02  2.572348567145E-02
  2.466475630388E-02  2.363239287044E-02  2.262555918034E-02  2.164362543169E-02
  2.068613894185E-02  1.975279711616E-02  1.884342251304E-02  1.795793986632E-02
  1.709635493358E-02  1.625873505065E-02  1.544519128754E-02  1.465586211991E-02
  1.389089855090E-02  1.315045063913E-02  1.243465540946E-02  1.174362613939E-02
  1.107744302638E-02  1.043614524645E-02  9.819724412841E-03  9.228119434348E-03
  8.661212758064E-03  8.118827961275E-03  7.600728635124E-03  7.106618486892E-03
  6.636142525838E-03  6.188889275928E-03  5.764393827178E-03  5.362141608805E-03
  4.981572736594E-03  4.622086792390E-03  4.283047899558E-03  3.963789967577E-03
  3.663621990778E-03  3.381833299737E-03  3.117698678243E-03  2.870483273350E-03
  2.639447240311E-03  2.423850077726E-03  2.222954620717E-03  2.036030671223E-03
  1.862358254452E-03  1.701230499080E-03  1.551956146051E-03  1.413861696772E-03
  1.286293216253E-03  1.168617810432E-03  1.060224799577E-03  9.605266114778E-04
  8.689594192020E-04  7.849835485487E-04  7.080836801780E-04  6.377688707570E-04
  5.735724164401E-04  5.150515806916E-04  4.617872069176E-04  4.133832346808E-04
  3.694661364895E-04  3.296842903377E-04  2.937073013771E-04  2.612252843751E-04
  2.319481169873E-04  2.056046723820E-04  1.819420384165E-04  1.607247293913E-04
  1.417338954073E-04  1.247665335117E-04  1.096347041346E-04  9.616475577486E-05
  8.419656046649E-05  7.358276223470E-05  6.418804049893E-05  5.588839019287E-05
  4.857042021815E-05  4.213067172092E-05  3.647495756157E-05  3.151772423033E-05
  2.718143733643E-05  2.339599166372E-05  2.009814663816E-05  1.723098789381E-05
  1.474341545476E-05  1.258965887485E-05  1.072881949750E-05  9.124439819062E-06
  7.744099764519E-06  6.559039517263E-06  5.543808388527E-06  4.675939069475E-06
  3.935646481697E-06  3.305550331523E-06  2.770420380904E-06  2.316943372920E-06
  1.933510493007E-06  1.610024207164E-06  1.337723294750E-06  1.109024884764E-06
  9.173823093257E-07  7.571576049227E-07  6.235075192322E-07  5.122819173852E-07
  4.199335248275E-07  3.434379929464E-07  2.802233269533E-07  2.281077718454E-07
  1.852453104349E-07  1.500779863992E-07  1.212943241511E-07  9.779317530258E-08
  7.865237793918E-08  6.310166932992E-08  5.049934465663E-08  4.031220355578E-08
  3.209837251602E-08  2.549263433388E-08  2.019393584002E-08  1.595478196844E-08
  1.257225799890E-08  9.880452548199E-09  7.744081737593E-09  6.053140065697E-09
  4.718426028361E-09  3.667810620915E-09  2.843134710808E-09  2.197637059058E-09
  1.693828674349E-09  1.301741376797E-09  9.974890955319E-10  7.620896831502E-10
  5.805030492618E-10  4.408483331517E-10  3.337687797572E-10  2.519180709040E-10
  1.895462016417E-10  1.421666759451E-10  1.062899135378E-10  7.921038741274E-11
  5.883721834034E-11  4.355979878356E-11  3.214155731439E-11  2.363625224028E-11
  1.732224002342E-11  1.265103506582E-11  9.207192535377E-12  6.677130811392E-12
  4.824986727935E-12  3.473983671308E-12  2.492105436554E-12  1.781120763973E-12
  1.268205706521E-12  8.995726292816E-13  6.356433514253E-13  4.474060195354E-13
  3.136759385369E-13  2.190440324102E-13  1.523463258420E-13  1.055266420240E-13
  7.279487333611E-14  5.000652885845E-14  3.420725989264E-14  2.329987960179E-14
  1.580195245201E-14  1.067006589331E-14  7.172986942201E-15  4.800501325124E-15
  3.198184413294E-15  2.120934301417E-15  1.400018879924E-15  9.198126840555E-16
  6.014496614351E-16  3.913891893102E-16  2.534562309435E-16  1.633263925046E-16
  1.047233066702E-16  6.680945228914E-17  4.240467446717E-17  2.677590695534E-17
  1.681907551264E-17  1.050897512572E-17  6.531179449610E-18  4.037086179578E-18
  2.481768527131E-18  1.517199581620E-18  9.223235830180E-19  5.575112313342E-19
  3.350611077468E-19  0.000000000000E+00  0.000000000000E+00  0.000000000000E+00
  0.000000000000E+00
</data>
</radfunc>
</valence-charge>
<pseudocore-charge matching-radius="1.25953838132"
 number-of-continuous-derivatives="4">
<annotation model-charge-form="Teter function with specified parameters" />
<radfunc>
<data npts="290">
  1.468176526932E+01  1.468129166932E+01  1.467987583615E+01  1.467751346117E+01
  1.467404644334E+01  1.466962161473E+01  1.466398052568E+01  1.465751864241E+01
  1.465024994549E+01  1.464176947452E+01  1.463220533092E+01  1.462180349891E+01
  1.460922356345E+01  1.459607489937E+01  1.458292927086E+01  1.456777437803E+01
  1.455030555581E+01  1.453372958393E+01  1.451507475812E+01  1.449408338227E+01
  1.447046662895E+01  1.444946682504E+01  1.442639727232E+01  1.440105760260E+01
  1.437322881223E+01  1.434267169025E+01  1.430912514891E+01  1.428183309466E+01
  1.425257041087E+01  1.422119913052E+01  1.418757229195E+01  1.415153345630E+01
  1.411291621604E+01  1.407154369777E+01  1.402722806323E+01  1.397977001315E+01
  1.392895829964E+01  1.387456925409E+01  1.383620621723E+01  1.379607505079E+01
  1.375409972990E+01  1.371020150894E+01  1.366429888137E+01  1.361630754592E+01
  1.356614038005E+01  1.351370742187E+01  1.345891586156E+01  1.340167004378E+01
  1.334187148229E+01  1.327941888846E+01  1.321420821525E+01  1.314613271849E+01
  1.307508303739E+01  1.300094729630E+01  1.292361123012E+01  1.284295833553E+01
  1.275887005071E+01  1.267122596623E+01  1.257990406988E+01  1.248478102858E+01
  1.238573251035E+01  1.228263354974E+01  1.217535896004E+01  1.206378379581E+01
  1.194778386931E+01  1.182723632443E+01  1.170202027178E+01  1.163762448573E+01
  1.157201748858E+01  1.150518504516E+01  1.143711318687E+01  1.136778823969E+01
  1.129719685333E+01  1.122532603163E+01  1.115216316415E+01  1.107769605910E+01
  1.100191297748E+01  1.092480266848E+01  1.084635440626E+01  1.076655802799E+01
  1.068540397318E+01  1.060288332439E+01  1.051898784921E+01  1.043371004355E+01
  1.034704317627E+01  1.025898133507E+01  1.016951947365E+01  1.007865346012E+01
  9.986380126656E+00  9.892697320289E+00  9.797603954858E+00  9.701100064047E+00
  9.603186855455E+00  9.503866765615E+00  9.403143515918E+00  9.301022169327E+00
  9.197509187814E+00  9.092612490390E+00  8.986341511642E+00  8.878707260620E+00
  8.769722379964E+00  8.659401205104E+00  8.547759823372E+00  8.434816132860E+00
  8.320589900818E+00  8.205102821406E+00  8.088378572558E+00  7.970442871754E+00
  7.851323530417E+00  7.731050506706E+00  7.609655956387E+00  7.487174281521E+00
  7.363642176630E+00  7.239098672025E+00  7.113585173955E+00  6.987145501203E+00
  6.859825917768E+00  6.731675161242E+00  6.602744466464E+00  6.473087584058E+00
  6.342760793405E+00  6.211822909618E+00  6.080335284073E+00  5.948361798035E+00
  5.815968848911E+00  5.683225328678E+00  5.550202593996E+00  5.416974427551E+00
  5.283616990167E+00  5.150208763214E+00  5.016830480881E+00  4.883565051873E+00
  4.750497470120E+00  4.617714714112E+00  4.485305634484E+00  4.353360829532E+00
  4.221972508365E+00  4.091234341442E+00  3.961241298285E+00  3.832089472250E+00
  3.703875892240E+00  3.576698321370E+00  3.450655042645E+00  3.325844631772E+00
  3.202365717366E+00  3.080316728861E+00  2.959795632546E+00  2.840899656292E+00
  2.723725003589E+00  2.608366557680E+00  2.494917576689E+00  2.383469380760E+00
  2.274111032373E+00  2.166929011127E+00  2.062006884424E+00  1.959424975625E+00
  1.859260031390E+00  1.761584890037E+00  1.666468152911E+00  1.573973860847E+00
  1.484161177963E+00  1.397084085100E+00  1.312791085339E+00  1.231324924103E+00
  1.152722326404E+00  1.077013753871E+00  1.004223184181E+00  9.343679155485E-01
  8.674583988709E-01  8.034981001004E-01  7.424833952973E-01  6.844035007146E-01
  6.292404400969E-01  5.769690511849E-01  5.275570331815E-01  4.809650366627E-01
  4.371467971045E-01  3.960493128468E-01  3.576130679280E-01  3.217722997954E-01
  2.884553114478E-01  2.575848270726E-01  2.290783897330E-01  2.028487991309E-01
  1.788045869243E-01  1.568505265326E-01  1.368881738143E-01  1.188164344673E-01
  1.025321534889E-01  8.793072154946E-02  7.490669269824E-02  6.335440743152E-02
  5.316861483761E-02  4.424508728980E-02  3.648122100407E-02  2.977661572168E-02
  2.403362682585E-02  1.915788336466E-02  1.505876573476E-02  1.164983718479E-02
  8.849223825630E-03  6.579938483667E-03  4.770144498501E-03  3.353356439177E-03
  2.268575681203E-03  1.460359834663E-03  8.788261228175E-04  4.795899582782E-04
  2.236411252556E-04  7.716112359162E-05  1.128633409973E-05  1.822694452792E-06
  2.891849982117E-05  7.670273276220E-05  1.328969545294E-04  1.884092301417E-04
  2.369187916372E-04  2.744601527795E-04  2.990151654128E-04  3.101210514319E-04
  3.085017617804E-04  2.957291204321E-04  2.739191309606E-04  2.454675884642E-04
  2.128277903228E-04  1.783317220880E-04  1.440546612449E-04  1.117217461219E-04
  8.265375497456E-05  5.774818442635E-05  3.749075550936E-05  2.199175062011E-05
  1.104112688725E-05  4.176179604588E-06  7.556484007673E-07  3.455855300101E-08
  1.234744909062E-06  3.606876319269E-06  6.480831517454E-06  9.302410085863E-06
  1.165552496322E-05  1.327014408110E-05  1.401725878285E-05  1.389299372062E-05
  1.299458705142E-05  1.149132723543E-05  9.593619062373E-06  7.523173068134E-06
  5.486896544679E-06  3.656457321266E-06  2.154755406932E-06  1.049744818948E-06
  3.552748179014E-07  3.793947397017E-08  2.839977769132E-08  2.353193275538E-07
  5.599571017501E-07  9.095884103124E-07  1.208252397619E-06  1.403803738451E-06
  1.470812873399E-06  1.409439451162E-06  1.240923639712E-06  1.000735025657E-06
  7.306422618990E-07  4.709961632629E-07  2.543599749211E-07  1.013055068261E-07
  1.877762737836E-08  0.000000000000E+00  0.000000000000E+00  0.000000000000E+00
  0.000000000000E+00  0.000000000000E+00  0.000000000000E+00  0.000000000000E+00
  0.000000000000E+00  0.000000000000E+00  0.000000000000E+00  0.000000000000E+00
  0.000000000000E+00  0.000000000000E+00  0.000000000000E+00  0.000000000000E+00
  0.000000000000E+00  0.000000000000E+00  0.000000000000E+00  0.000000000000E+00
  0.000000000000E+00  0.000000000000E+00
</data>
</radfunc>
</pseudocore-charge>
<semilocal-potentials set="scalar_relativistic">
<slps n="5" l="s" rc="2.15444032262">
<radfunc>
<data npts="290">
  7.148503817134E+01  7.143048620000E+01  7.126782428890E+01  7.099781963110E+01
  7.060470749993E+01  7.010835352124E+01  6.948412432524E+01  6.878059633202E+01
  6.800356337507E+01  6.711561890221E+01  6.613749510009E+01  6.510070999396E+01
  6.388289334631E+01  6.265034661912E+01  6.145734757579E+01  6.012831852447E+01
  5.865462669760E+01  5.731070253179E+01  5.585789970360E+01  5.429404074035E+01
  5.261829985200E+01  5.119759990188E+01  4.970694297495E+01  4.814831727380E+01
  4.652454271742E+01  4.483929721857E+01  4.309712292663E+01  4.175634426461E+01
  4.038913313163E+01  3.899830540540E+01  3.758689892990E+01  3.615815005766E+01
  3.471546627984E+01  3.326239538780E+01  3.180259172891E+01  3.033978022143E+01
  2.887771887461E+01  2.742016061480E+01  2.645279172822E+01  2.549015554510E+01
  2.453331235426E+01  2.358329734367E+01  2.264111632382E+01  2.170774172464E+01
  2.078410889829E+01  1.987111275515E+01  1.896960475569E+01  1.808039027561E+01
  1.720422635652E+01  1.634181984902E+01  1.549382595040E+01  1.466084713395E+01
  1.384343246260E+01  1.304207727536E+01  1.225722323132E+01  1.148925869278E+01
  1.073851942631E+01  1.000528959820E+01  9.289803039231E+00  8.592244752300E+00
  7.912752635879E+00  7.251419395852E+00  6.608294618554E+00  5.983386978317E+00
  5.376666553709E+00  4.788067227844E+00  4.217489149502E+00  3.938918265247E+00
  3.664801233442E+00  3.395117201542E+00  3.129843680029E+00  2.868956620953E+00
  2.612430496126E+00  2.360238374854E+00  2.112352001115E+00  1.868741870072E+00
  1.629377303863E+00  1.394226526566E+00  1.163256738283E+00  9.364341882658E-01
  7.137242470376E-01  4.950914774515E-01  2.804997046356E-01  6.991208479380E-02
 -1.367088271857E-01 -3.394010113349E-01 -5.382029174556E-01 -7.331534012464E-01
 -9.242916617046E-01 -1.111657179846E+00 -1.295289658743E+00 -1.475228964895E+00
 -1.651515070946E+00 -1.824187999766E+00 -1.993287769896E+00 -2.158854342373E+00
 -2.320927568954E+00 -2.479547141743E+00 -2.634752544239E+00 -2.786583003836E+00
 -2.935077445770E+00 -3.080274448565E+00 -3.222212200989E+00 -3.360928460557E+00
 -3.496460513614E+00 -3.628845137042E+00 -3.758118561624E+00 -3.884316437123E+00
 -4.007473799109E+00 -4.127625037592E+00 -4.244803867508E+00 -4.359043301106E+00
 -4.470375622275E+00 -4.578832362855E+00 -4.684444280961E+00 -4.787241341344E+00
 -4.887252697792E+00 -4.984506677560E+00 -5.079030767819E+00 -5.170851604058E+00
 -5.259994960354E+00 -5.346485741467E+00 -5.430347976552E+00 -5.511604814399E+00
 -5.590278519981E+00 -5.666390472118E+00 -5.739961162014E+00 -5.811010192430E+00
 -5.879556277212E+00 -5.945617240950E+00 -6.009210018473E+00 -6.070350653982E+00
 -6.129054299607E+00 -6.185335213239E+00 -6.239206755549E+00 -6.290681386184E+00
 -6.339770659188E+00 -6.386485217831E+00 -6.430834789095E+00 -6.472828178191E+00
 -6.512473263573E+00 -6.549776993017E+00 -6.584745381427E+00 -6.617383511109E+00
 -6.647695535307E+00 -6.675684685851E+00 -6.701353285790E+00 -6.724702767857E+00
 -6.745733699632E+00 -6.764445816165E+00 -6.780838060775E+00 -6.794908634607E+00
 -6.806655055408E+00 -6.816074225799E+00 -6.823162511157E+00 -6.827915826974E+00