<?xml version="1.0" encoding="UTF-8" ?>
<psml version="1.1" energy_unit="hartree" length_unit="bohr"
 uuid="bb9f6d30-44bf-11e8-5af5-3932eb659aff"
 xmlns="http://esl.cecam.org/PSML/ns/1.1">
<provenance creator="ONCVPSP-3.3.0+psml-3.3.0-73 (fully-relativistic)"
 date="2018-04-20">
<annotation action="semilocal-pseudopotential-generation"
 action-cont="projectors-generation" />
<input-file name="oncvpsp-input">
<![CDATA[# atsym z nc nv iexc psfile
Ru 44 6 4 4 both
# n l f
1 0 2.0
2 0 2.0
2 1 6.0
3 0 2.0
3 1 6.0
3 2 10.0
4 0 2.0
4 1 6.0
4 2 7.0
5 0 1.0
# lmax
2
# l rc ep ncon nbas qcut
0 1.35 0.0 4 8 8.7
1 1.4 0.0 4 8 9.0
2 1.3 0.0 4 7 9.0
# lloc lpopt rc5 dvloc0
4 5 1.3 0.0
# l nproj debl
0 2 1.0
1 2 2.5
2 2 1.5
# icmod fcfact
3 7.0 1.24
# epsh1 epsh2 depsh
-12.0 12.0 0.02
# rlmax drl
6.0 0.01
 0
]]>
</input-file>
</provenance>
<pseudo-atom-spec atomic-label="Ru" atomic-number="44" z-pseudo="16"
 flavor="Hamann&apos;s oncvpsp" relativity="dirac" spin-dft="no"
 core-corrections="yes">
<annotation pseudo-energy="-94.9082103520" />
<exchange-correlation>
<annotation oncvpsp-xc-code="4" oncvpsp-xc-type="GGA -- Perdew-Burke-Ernzerhof" />
<libxc-info number-of-functionals="2">
<functional name="Perdew, Burke &amp; Ernzerhof (GGA)" type="exchange" id="101" />
<functional name="Perdew, Burke &amp; Ernzerhof (GGA)" type="correlation"
 id="130" />
</libxc-info>
</exchange-correlation>
<valence-configuration total-valence-charge="16">
<shell n="4" l="s" occupation="2" />
<shell n="4" l="p" occupation="6" />
<shell n="4" l="d" occupation="7" />
<shell n="5" l="s" occupation="1" />
</valence-configuration>
</pseudo-atom-spec>
<grid npts="457">
<annotation type="sampled from oncvpsp log grid"
 recipe="r(i:1..N) = r1*exp(a*(i-1)) + r=0; resampled"
 recipe-cont="r1: scale; a: step" scale="0.113636363636E-04"
 step="0.119285708653E-01" delta="0.500000000000E-02" rmax="44.1701864667" />
<grid-data>
  0.000000000000E+00  5.043815794335E-03  1.007462622473E-02  1.511354584145E-02
  2.012327525563E-02  2.524226985489E-02  3.055037921081E-02  3.567494135815E-02
  4.067699906245E-02  4.583044039319E-02  5.102448653004E-02  5.613358028248E-02
  6.175424878552E-02  6.713213057154E-02  7.297834632768E-02  7.839296543135E-02
  8.420932150924E-02  8.938460611162E-02  9.487795016675E-02  1.007089007765E-01
  1.068982063566E-01  1.121224214091E-01  1.176019487239E-01  1.233492656496E-01
  1.293774593142E-01  1.357002564259E-01  1.423320545300E-01  1.475177418904E-01
  1.528923631736E-01  1.584628019468E-01  1.642361925710E-01  1.702199293389E-01
  1.764216759446E-01  1.828493752993E-01  1.895112597039E-01  1.964158613929E-01
  2.035720234618E-01  2.109889111930E-01  2.160830274648E-01  2.213001360800E-01
  2.266432065655E-01  2.321152801448E-01  2.377194714686E-01  2.434589703877E-01
  2.493370437688E-01  2.553570373535E-01  2.615223776634E-01  2.678365739497E-01
  2.743032201911E-01  2.809259971394E-01  2.877086744144E-01  2.946551126494E-01
  3.017692656892E-01  3.090551828400E-01  3.165170111745E-01  3.241589978923E-01
  3.319854927375E-01  3.400009504741E-01  3.482099334224E-01  3.566171140549E-01
  3.652272776566E-01  3.740453250484E-01  3.830762753764E-01  3.923252689690E-01
  4.017975702630E-01  4.114985707995E-01  4.214337922928E-01  4.264909978004E-01
  4.316088897740E-01  4.367881964512E-01  4.420296548087E-01  4.473340106664E-01
  4.527020187944E-01  4.581344430199E-01  4.636320563361E-01  4.691956410122E-01
  4.748259887043E-01  4.805239005688E-01  4.862901873756E-01  4.921256696241E-01
  4.980311776596E-01  5.040075517915E-01  5.100556424130E-01  5.161763101220E-01
  5.223704258434E-01  5.286388709535E-01  5.349825374050E-01  5.414023278538E-01
  5.478991557881E-01  5.544739456575E-01  5.611276330054E-01  5.678611646015E-01
  5.746754985767E-01  5.815716045596E-01  5.885504638144E-01  5.956130693801E-01
  6.027604262127E-01  6.099935513272E-01  6.173134739432E-01  6.247212356305E-01
  6.322178904580E-01  6.398045051435E-01  6.474821592053E-01  6.552519451157E-01
  6.631149684571E-01  6.710723480786E-01  6.791252162555E-01  6.872747188506E-01
  6.955220154768E-01  7.038682796625E-01  7.123146990185E-01  7.208624754067E-01
  7.295128251116E-01  7.382669790129E-01  7.471261827611E-01  7.560916969542E-01
  7.651647973177E-01  7.743467748855E-01  7.836389361841E-01  7.930426034183E-01
  8.025591146593E-01  8.121898240353E-01  8.219361019237E-01  8.317993351468E-01
  8.417809271685E-01  8.518822982945E-01  8.621048858741E-01  8.724501445046E-01
  8.829195462386E-01  8.935145807935E-01  9.042367557630E-01  9.150875968322E-01
  9.260686479942E-01  9.371814717701E-01  9.484276494313E-01  9.598087812245E-01
  9.713264865992E-01  9.829824044384E-01  9.947781932916E-01  1.006715531611E+00
  1.018796117990E+00  1.031021671406E+00  1.043393931463E+00  1.055914658641E+00
  1.068585634544E+00  1.081408662159E+00  1.094385566105E+00  1.107518192898E+00
  1.120808411213E+00  1.134258112148E+00  1.147869209493E+00  1.161643640007E+00
  1.175583363687E+00  1.189690364052E+00  1.203966648420E+00  1.218414248201E+00
  1.233035219180E+00  1.247831641810E+00  1.262805621511E+00  1.277959288970E+00
  1.293294800437E+00  1.308814338043E+00  1.324520110099E+00  1.340414351420E+00
  1.356499323637E+00  1.372777315521E+00  1.389250643307E+00  1.405921651027E+00
  1.422792710839E+00  1.439866223369E+00  1.457144618050E+00  1.474630353466E+00
  1.492325917708E+00  1.510233828720E+00  1.528356634665E+00  1.546696914281E+00
  1.565257277252E+00  1.584040364579E+00  1.603048848954E+00  1.622285435142E+00
  1.641752860363E+00  1.661453894688E+00  1.681391341424E+00  1.701568037521E+00
  1.721986853971E+00  1.742650696219E+00  1.763562504574E+00  1.784725254629E+00
  1.806141957684E+00  1.827815661176E+00  1.849749449110E+00  1.871946442500E+00
  1.894409799810E+00  1.917142717408E+00  1.940148430016E+00  1.963430211177E+00
  1.986991373711E+00  2.010835270195E+00  2.034965293438E+00  2.059384876959E+00
  2.084097495482E+00  2.109106665428E+00  2.134415945413E+00  2.160028936758E+00
  2.185949283999E+00  2.212180675407E+00  2.238726843512E+00  2.265591565634E+00
  2.292778664422E+00  2.320292008395E+00  2.348135512496E+00  2.376313138646E+00
  2.404828896309E+00  2.433686843065E+00  2.462891085182E+00  2.492445778204E+00
  2.522355127543E+00  2.552623389073E+00  2.583254869742E+00  2.614253928179E+00
  2.645624975317E+00  2.677372475021E+00  2.709500944721E+00  2.742014956058E+00
  2.774919135530E+00  2.808218165157E+00  2.841916783139E+00  2.876019784536E+00
  2.910532021951E+00  2.945458406214E+00  2.980803907089E+00  3.016573553974E+00
  3.052772436622E+00  3.089405705861E+00  3.126478574331E+00  3.163996317223E+00
  3.201964273030E+00  3.240387844306E+00  3.279272498438E+00  3.318623768419E+00
  3.358447253640E+00  3.398748620684E+00  3.439533604132E+00  3.480808007382E+00
  3.522577703470E+00  3.564848635912E+00  3.607626819543E+00  3.650918341377E+00
  3.694729361474E+00  3.739066113812E+00  3.783934907177E+00  3.829342126064E+00
  3.875294231576E+00  3.921797762355E+00  3.968859335503E+00  4.016485647530E+00
  4.064683475300E+00  4.113459677003E+00  4.162821193128E+00  4.212775047445E+00
  4.263328348014E+00  4.314488288191E+00  4.366262147649E+00  4.418657293421E+00
  4.471681180942E+00  4.525341355113E+00  4.579645451374E+00  4.634601196791E+00
  4.690216411152E+00  4.746499008086E+00  4.803456996183E+00  4.861098480137E+00
  4.919431661899E+00  4.978464841842E+00  5.038206419944E+00  5.098664896983E+00
  5.159848875747E+00  5.221767062256E+00  5.284428267003E+00  5.347841406207E+00
  5.412015503082E+00  5.476959689119E+00  5.542683205388E+00  5.609195403853E+00
  5.676505748699E+00  5.744623817683E+00  5.813559303495E+00  5.883322015137E+00
  5.953921879319E+00  6.025368941871E+00  6.097673369173E+00  6.170845449603E+00
  6.244895594999E+00  6.319834342139E+00  6.395672354244E+00  6.472420422495E+00
  6.550089467565E+00  6.628690541176E+00  6.708234827670E+00  6.788733645602E+00
  6.870198449349E+00  6.952640830742E+00  7.036072520710E+00  7.120505390959E+00
  7.205951455650E+00  7.292422873118E+00  7.379931947596E+00  7.468491130967E+00
  7.558113024538E+00  7.648810380833E+00  7.740596105403E+00  7.833483258668E+00
  7.927485057772E+00  8.022614878465E+00  8.118886257007E+00  8.216312892091E+00
  8.314908646796E+00  8.414687550557E+00  8.515663801164E+00  8.617851766778E+00
  8.721265987979E+00  8.825921179835E+00  8.931832233993E+00  9.039014220801E+00
  9.147482391451E+00  9.257252180148E+00  9.368339206310E+00  9.480759276786E+00
  9.594528388107E+00  9.709662728764E+00  9.826178681509E+00  9.944092825688E+00
  1.006342193960E+01  1.018418300287E+01  1.030639319891E+01  1.043006991729E+01
  1.055523075630E+01  1.068189352538E+01  1.081007624768E+01  1.093979716265E+01
  1.107107472860E+01  1.120392762535E+01  1.133837475685E+01  1.147443525393E+01
  1.161212847698E+01  1.175147401870E+01  1.189249170693E+01  1.203520160741E+01
  1.217962402670E+01  1.232577951502E+01  1.247368886920E+01  1.262337313563E+01
  1.277485361326E+01  1.292815185662E+01  1.308328967890E+01  1.324028915504E+01
  1.339917262491E+01  1.355996269640E+01  1.372268224876E+01  1.388735443575E+01
  1.405400268898E+01  1.422265072124E+01  1.439332252990E+01  1.456604240026E+01
  1.474083490906E+01  1.491772492797E+01  1.509673762710E+01  1.527789847863E+01
  1.546123326037E+01  1.564676805950E+01  1.583452927621E+01  1.602454362753E+01
  1.621683815106E+01  1.641144020887E+01  1.660837749138E+01  1.680767802127E+01
  1.700937015753E+01  1.721348259942E+01  1.742004439061E+01  1.762908492330E+01
  1.784063394238E+01  1.805472154969E+01  1.827137820828E+01  1.849063474678E+01
  1.871252236374E+01  1.893707263211E+01  1.916431750369E+01  1.939428931374E+01
  1.962702078550E+01  1.986254503493E+01  2.010089557535E+01  2.034210632225E+01
  2.058621159812E+01  2.083324613730E+01  2.108324509094E+01  2.133624403203E+01
  2.159227896042E+01  2.185138630794E+01  2.211360294364E+01  2.237896617896E+01
  2.264751377311E+01  2.291928393839E+01  2.319431534565E+01  2.347264712980E+01
  2.375431889535E+01  2.403937072210E+01  2.432784317076E+01  2.461977728881E+01
  2.491521461628E+01  2.521419719167E+01  2.551676755797E+01  2.582296876867E+01
  2.613284439389E+01  2.644643852662E+01  2.676379578894E+01  2.708496133841E+01
  2.740998087447E+01  2.773890064496E+01  2.807176745270E+01  2.840862866213E+01
  2.874953220608E+01  2.909452659255E+01  2.944366091166E+01  2.979698484260E+01
  3.015454866071E+01  3.051640324464E+01  3.088260008358E+01  3.125319128458E+01
  3.162822958000E+01  3.200776833496E+01  3.239186155498E+01  3.278056389364E+01
  3.317393066036E+01  3.357201782828E+01  3.397488204222E+01  3.438258062673E+01
  3.479517159425E+01  3.521271365338E+01  3.563526621722E+01  3.606288941183E+01
  3.649564408477E+01  3.693359181379E+01  3.737679491555E+01  3.782531645454E+01
  3.827922025199E+01  3.873857089502E+01  3.920343374576E+01  3.967387495071E+01
  4.014996145012E+01  4.063176098752E+01  4.111934211937E+01  4.161277422480E+01
  4.211212751550E+01  4.261747304568E+01  4.312888272223E+01  4.364642931490E+01
  4.417018646668E+01
</grid-data>
</grid>
<valence-charge total-charge="16" is-unscreening-charge="yes"
 rescaled-to-z-pseudo="no">
<radfunc>
<data npts="457">
  1.047177308163E-01  1.055866129486E-01  1.081853117014E-01  1.125252306144E-01
  1.185683389392E-01  1.265305497868E-01  1.367048842671E-01  1.483919544305E-01
  1.615793997152E-01  1.770202469740E-01  1.945048855091E-01  2.136056618439E-01
  2.368234553758E-01  2.612275519124E-01  2.902194041708E-01  3.193922943904E-01
  3.532552760116E-01  3.856192453497E-01  4.223098304800E-01  4.639320543669E-01
  5.111811912588E-01  5.535654877662E-01  6.005252350432E-01  6.525809214778E-01
  7.103159162838E-01  7.743842940105E-01  8.455195392200E-01  9.039997631216E-01
  9.672989780352E-01  1.035834630328E+00  1.110061222059E+00  1.190473312984E+00
  1.277608641574E+00  1.372051330297E+00  1.474435126381E+00  1.585446612054E+00
  1.705828296968E+00  1.836381479780E+00  1.929491145242E+00  2.027774666335E+00
  2.131515843474E+00  2.241011243264E+00  2.356570189242E+00  2.478514631621E+00
  2.607178873497E+00  2.742909128201E+00  2.886062879555E+00  3.037008013661E+00
  3.196121687660E+00  3.363788897493E+00  3.540400703380E+00  3.726352068329E+00
  3.922039261794E+00  4.127856777586E+00  4.344193712536E+00  4.571429550376E+00
  4.809929293992E+00  5.060037888947E+00  5.322073882220E+00  5.596322262754E+00
  5.883026435133E+00  6.182379284847E+00  6.494513303648E+00  6.819489757031E+00
  7.157286893295E+00  7.507787215651E+00  7.870763865890E+00  8.056826482455E+00
  8.245866200767E+00  8.437817369323E+00  8.632604680984E+00  8.830142675269E+00
  9.030335237719E+00  9.233075098581E+00  9.438243333337E+00  9.645708867830E+00
  9.855327991061E+00  1.006694387895E+01  1.028038613272E+01  1.049547033576E+01
  1.071199763327E+01  1.092975433909E+01  1.114851157463E+01  1.136802494487E+01
  1.158803425702E+01  1.180826328728E+01  1.202841960172E+01  1.224819443748E+01
  1.246726265042E+01  1.268528273601E+01  1.290189692986E+01  1.311673139470E+01
  1.332939650052E+01  1.353948720464E+01  1.374658353811E+01  1.395025120510E+01
  1.415004230108E+01  1.434549615587E+01  1.453614030658E+01  1.472149160532E+01
  1.490105746559E+01  1.507433725058E+01  1.524082380570E+01  1.540000513646E+01
  1.555136623171E+01  1.569439103104E+01  1.582856453339E+01  1.595337504270E+01
  1.606831654443E+01  1.617289120529E+01  1.626661198636E+01  1.634900535796E+01
  1.641961410266E+01  1.647800019079E+01  1.652374771047E+01  1.655646583269E+01
  1.657579178952E+01  1.658139384197E+01  1.657297421213E+01  1.655027195280E+01
  1.651306572635E+01  1.646117646355E+01  1.639446987228E+01  1.631285876562E+01
  1.621630517874E+01  1.610482224417E+01  1.597847579611E+01  1.583738567528E+01
  1.568172670771E+01  1.551172933296E+01  1.532767985970E+01  1.512992032991E+01
  1.491884797614E+01  1.469491426040E+01  1.445862348713E+01  1.421053098774E+01
  1.395124087825E+01  1.368140339723E+01  1.340171183560E+01  1.311289907540E+01
  1.281573375912E+01  1.251101611651E+01  1.219957347985E+01  1.188225552348E+01
  1.155992926688E+01  1.123347388426E+01  1.090377536674E+01  1.057172108530E+01
  1.023819430491E+01  9.904068701108E+00  9.570202931199E+00  9.237435311853E+00
  8.906578654327E+00  8.578415306964E+00  8.253692452593E+00  7.933117705725E+00
  7.617355051199E+00  7.307021162135E+00  7.002682130934E+00  6.704850642547E+00
  6.413983614649E+00  6.130480324658E+00  5.854680918245E+00  5.586864931497E+00
  5.327250270888E+00  5.075994633948E+00  4.833199712363E+00  4.598916043814E+00
  4.373146753651E+00  4.155855941169E+00  3.946979985830E+00  3.746429983407E+00
  3.554094114846E+00  3.369839970340E+00  3.193516803352E+00  3.024957705082E+00
  2.863981691316E+00  2.710395694997E+00  2.563996459136E+00  2.424572325983E+00
  2.291904919488E+00  2.165770719215E+00  2.045942524851E+00  1.932190811369E+00
  1.824284975757E+00  1.721994476940E+00  1.625089871197E+00  1.533343745977E+00
  1.446531555455E+00  1.364432361670E+00  1.286829485362E+00  1.213511070979E+00
  1.144270570407E+00  1.078907150298E+00  1.017226027970E+00  9.590387406207E-01
  9.041633529382E-01  8.524246079809E-01  8.036540261396E-01  7.576899569042E-01
  7.143775880034E-01  6.735689163294E-01  6.351226848754E-01  5.989042897146E-01
  5.647856608376E-01  5.326451204463E-01  5.023672220732E-01  4.738425736684E-01
  4.469676475626E-01  4.216445799882E-01  3.977809626133E-01  3.752896283245E-01
  3.540884332789E-01  3.341000370426E-01  3.152516824343E-01  2.974749765068E-01
  2.807056739218E-01  2.648834638083E-01  2.499517610393E-01  2.358575027171E-01
  2.225509505267E-01  2.099854994905E-01  1.981174935513E-01  1.869060483042E-01
  1.763128811103E-01  1.663021487409E-01  1.568402926300E-01  1.478958917469E-01
  1.394395230444E-01  1.314436293918E-01  1.238823948556E-01  1.167316271606E-01
  1.099686471299E-01  1.035721848815E-01  9.752228253976E-02  9.180020320298E-02
  8.638834590202E-02  8.127016627407E-02  7.643010267434E-02  7.185350744663E-02
  6.752658307552E-02  6.343632294610E-02  5.957045644306E-02  5.591739812696E-02
  5.246620073411E-02  4.920651175467E-02  4.612853335338E-02  4.322298540713E-02
  4.048107144373E-02  3.789444727655E-02  3.545519213989E-02  3.315578214034E-02
  3.098906584895E-02  2.894824186899E-02  2.702683822321E-02  2.521869341372E-02
  2.351793901598E-02  2.191898367705E-02  2.041649839578E-02  1.900540297159E-02
  1.768085351107E-02  1.643823089902E-02  1.527313013534E-02  1.418135045390E-02
  1.315888614320E-02  1.220191799536E-02  1.130680531609E-02  1.047007843419E-02
  9.688431654832E-03  8.958716606522E-03  8.277935936590E-03  7.643237315445E-03
  7.051907714312E-03  6.501367925718E-03  5.989167300157E-03  5.512978676189E-03
  5.070593484749E-03  4.659917011655E-03  4.278963805176E-03  3.925853218077E-03
  3.598805075800E-03  3.296135464398E-03  3.016252633486E-03  2.757653010884E-03
  2.518917326722E-03  2.298706845737E-03  2.095759707134E-03  1.908887371905E-03
  1.736971177818E-03  1.578959002452E-03  1.433862034703E-03  1.300751655114E-03
  1.178756425200E-03  1.067059185716E-03  9.648942635245E-04  8.715447863598E-04
  7.863401044710E-04  7.086533177307E-04  6.378989064669E-04  5.735304639302E-04
  5.150385280136E-04  4.619485095719E-04  4.138187144725E-04  3.702384563329E-04
  3.308262567824E-04  2.952281300082E-04  2.631159483244E-04  2.341858855177E-04
  2.081569347796E-04  1.847694981249E-04  1.637840443074E-04  1.449798323800E-04
  1.281536981881E-04  1.131189012405E-04  9.970402954916E-05  8.775196018274E-05
  7.711887341148E-05  6.767331845444E-05  5.929532895096E-05  5.187558637927E-05
  4.531462972921E-05  3.952210980507E-05  3.441608659022E-05  2.992236814694E-05
  2.597388955585E-05  2.251013042058E-05  1.947656947692E-05  1.682417485353E-05
  1.450892853521E-05  1.249138358164E-05  1.073625265578E-05  9.212026418353E-06
  7.890620348782E-06  6.747048560333E-06  5.759123187764E-06  4.907177940892E-06
  4.173814436905E-06  3.543669948305E-06  3.003205232071E-06  2.540511138697E-06
  2.145132737010E-06  1.807909731671E-06  1.520831994619E-06  1.276909078914E-06
  1.070052633006E-06  8.949706848047E-07  7.470728176203E-07  6.223853135012E-07
  5.174753932899E-07  4.293837363454E-07  3.555645159765E-07  2.938322387906E-07
  2.423147270679E-07  1.994116326391E-07  1.637579183356E-07  1.341917886995E-07
  1.097265951299E-07  8.952628190046E-08  7.288397841616E-08  5.920337965832E-08
  4.798259097470E-08  3.880014521932E-08  3.130292977467E-08  2.519578825148E-08
  2.023258673119E-08  1.620855738004E-08  1.295375321815E-08  1.032746687564E-08
  8.213483421040E-09  6.516052917775E-09  5.156482365892E-09  4.070259233593E-09
  3.204629987511E-09  2.516567002259E-09  1.971066073935E-09  1.539724580103E-09
  1.199557216277E-09  9.320122870417E-10  7.221568232119E-10  5.580034126270E-10
  4.299556482123E-10  3.303525863845E-10  2.530955588989E-10  1.918876913324E-10
  1.431878861181E-10  1.088336584362E-10  8.247191953095E-11  6.230454276111E-11
  4.692331184907E-11  3.522875679125E-11  2.636512657065E-11  1.966845448617E-11
  1.462521199624E-11  1.083949808971E-11  8.007086680472E-12  5.894965959164E-12
  4.325261039610E-12  3.162643228806E-12  2.304503216814E-12  1.673307733712E-12
  1.210675116248E-12  8.727993058704E-13  6.269278883439E-13  4.486610956935E-13
  3.198879093131E-13  2.272147649512E-13  1.607737200491E-13  1.133218325406E-13
  7.956317658102E-14  5.564041556846E-14  3.875500670550E-14  2.688460665402E-14
  1.857363624620E-14  1.277868787142E-14  8.754878042419E-15  5.972643856682E-15
  4.057081350500E-15  2.743904669146E-15  1.847608190044E-15  1.238549504508E-15
  8.265255534844E-16  5.490540921842E-16  3.630497430203E-16  2.389379961799E-16
  1.565121355318E-16  1.020304653285E-16  6.619204458886E-17  4.273173382930E-17
  2.744975346995E-17  1.754460360703E-17  1.115680239394E-17  7.058309488702E-18
  4.442215893028E-18  2.781054330227E-18  1.731819574282E-18  1.072633495561E-18
  6.607352105190E-19  4.047645218605E-19  2.465741142941E-19  1.493596867793E-19
  8.995610418251E-20  5.386532951081E-20  3.206558620281E-20  1.897534159294E-20
  1.116168028565E-20  6.525709377741E-21  3.791859848146E-21  2.189631518094E-21
  1.256467848904E-21  7.164075410025E-22  4.058487226839E-22  0.000000000000E+00
  0.000000000000E+00  0.000000000000E+00  0.000000000000E+00  0.000000000000E+00
  0.000000000000E+00
</data>
</radfunc>
</valence-charge>
<pseudocore-charge matching-radius="0.687274718851"
 number-of-continuous-derivatives="4">
<annotation model-charge-form="Teter function with specified parameters" />
<radfunc>
<data npts="290">
  1.162576487889E+02  1.162447832512E+02  1.162063271977E+02  1.161421805087E+02
  1.160530179117E+02  1.159358197212E+02  1.157865198374E+02  1.156156516781E+02
  1.154236474346E+02  1.151998988278E+02  1.149479007355E+02  1.146742424781E+02
  1.143438535438E+02  1.139991971083E+02  1.135931519320E+02  1.131882136594E+02
  1.127226372485E+02  1.122820338547E+02  1.117875416035E+02  1.112328442202E+02
  1.106109588402E+02  1.100599263661E+02  1.094566879986E+02  1.087966233537E+02
  1.080747714075E+02  1.072858202231E+02  1.064241000797E+02  1.057264414773E+02
  1.049817899197E+02  1.041873586966E+02  1.033402541393E+02  1.024374812314E+02
  1.014759513119E+02  1.004524921979E+02  9.936386107867E+01  9.820676057146E+01
  9.697785835330E+01  9.567381081405E+01  9.476105388730E+01  9.381244457743E+01
  9.282702271289E+01  9.180384829632E+01  9.074200749721E+01  8.964061920814E+01
  8.849884218995E+01  8.731588282907E+01  8.609100352739E+01  8.482353174075E+01
  8.351286967782E+01  8.215850466474E+01  8.076002017402E+01  7.931710750750E+01
  7.782957811328E+01  7.629737650465E+01  7.472059373586E+01  7.309948137409E+01
  7.143446588981E+01  6.972616336814E+01  6.797539442277E+01  6.618319916998E+01
  6.435085209487E+01  6.247987661451E+01  6.057205911298E+01  5.862946219309E+01
  5.665443685724E+01  5.464963329823E+01  5.261800994852E+01  5.159315140102E+01
  5.056284040586E+01  4.952753612911E+01  4.848771782469E+01  4.744388480221E+01
  4.639655633756E+01  4.534627152274E+01  4.429358905112E+01  4.323908693444E+01
  4.218336214785E+01  4.112703019939E+01  4.007072462029E+01  3.901509637264E+01
  3.796081317113E+01  3.690855871563E+01  3.585903183179E+01  3.481294551675E+01
  3.377102588776E+01  3.273401103143E+01  3.170264975205E+01  3.067770021753E+01
  2.965992850232E+01  2.865010702685E+01  2.764901289389E+01  2.665742612272E+01
  2.567612778265E+01  2.470589802829E+01  2.374751403973E+01  2.280174787143E+01
  2.186936421487E+01  2.095111808064E+01  2.004775240676E+01  1.915999560095E+01
  1.828855902584E+01  1.743413443682E+01  1.659739138364E+01  1.577897458782E+01
  1.497950130903E+01  1.419955871467E+01  1.343970126804E+01  1.270044815137E+01
  1.198228074093E+01  1.128564015257E+01  1.061092487643E+01  9.958488520609E+00
  9.328637683974E+00  8.721629978711E+00  8.137672223502E+00  7.576918828262E+00
  7.039470391204E+00  6.525372528661E+00  6.034614957432E+00  5.567130848585E+00
  5.122796470437E+00  4.701431137029E+00  4.302797476638E+00  3.926602032801E+00
  3.572496207980E+00  3.240077557303E+00  2.928891436840E+00  2.638433007611E+00
  2.368149592983E+00  2.117443383343E+00  1.885674477938E+00  1.672164249626E+00
  1.476199014007E+00  1.297033980051E+00  1.133897455017E+00  9.859952721665E-01
  8.525154056437E-01  7.326327330079E-01  6.255139022855E-01  5.303222572332E-01
  4.462227717903E-01  3.723869425790E-01  3.079975868491E-01  2.522534925563E-01
  2.043738673675E-01  1.636025343802E-01  1.292118242651E-01  1.005061164247E-01
  7.682498562693E-02  5.754591539832E-02  4.208654523147E-02  2.990642529894E-02
  2.050825979978E-02  1.343862817152E-02  8.288182043001E-03  4.691324812998E-03
  2.325389923194E-03  9.093430406730E-04  2.020422438591E-04  9.867828181867E-08
  1.353877702883E-04  4.722677184265E-04  9.045673960920E-04  1.352409789265E-03
  1.758939484629E-03  2.087023380997E-03  2.315992634549E-03  2.438490835990E-03
  2.457488588311E-03  2.383518106829E-03  2.232173366791E-03  2.021911913248E-03
  1.772184021323E-03  1.501903805453E-03  1.228265520210E-03  9.658970986678E-04
  7.263323737825E-04  5.177738525565E-04  3.451097603175E-04  2.101426903412E-04
  1.119828564448E-04  4.755683588802E-05  1.218288298684E-05  1.663493493572E-07
  5.373302702111E-06  2.174681312717E-05  4.373818648397E-05  6.663419493526E-05
  8.677054680603E-05  1.016308856436E-04  1.098389514352E-04  1.110586614127E-04
  1.058223435825E-04  9.531087109013E-05  8.111083305867E-05  6.497313340610E-05
  4.859469614702E-05  3.344059443595E-05  2.061836572044E-05  1.081007837931E-05
  4.261476432658E-06  8.218421482193E-07  2.361158348578E-08  1.187667675869E-06
  3.538870302385E-06  6.316823547451E-06  8.868989069738E-06  1.071670724544E-05
  1.158901117184E-05  1.142374455132E-05  1.033982944603E-05  8.588030107897E-06
  6.489801894764E-06  4.374555898962E-06  2.524880380261E-06  1.137128918588E-06
  3.016949085210E-07  3.761601666277E-09  0.000000000000E+00  0.000000000000E+00
  0.000000000000E+00  0.000000000000E+00  0.000000000000E+00  0.000000000000E+00
  0.000000000000E+00  0.000000000000E+00  0.000000000000E+00  0.000000000000E+00
  0.000000000000E+00  0.000000000000E+00  0.000000000000E+00  0.000000000000E+00
  0.000000000000E+00  0.000000000000E+00  0.000000000000E+00  0.000000000000E+00
  0.000000000000E+00  0.000000000000E+00  0.000000000000E+00  0.000000000000E+00
  0.000000000000E+00  0.000000000000E+00  0.000000000000E+00  0.000000000000E+00
  0.000000000000E+00  0.000000000000E+00  0.000000000000E+00  0.000000000000E+00
  0.000000000000E+00  0.000000000000E+00  0.000000000000E+00  0.000000000000E+00
  0.000000000000E+00  0.000000000000E+00  0.000000000000E+00  0.000000000000E+00
  0.000000000000E+00  0.000000000000E+00  0.000000000000E+00  0.000000000000E+00
  0.000000000000E+00  0.000000000000E+00  0.000000000000E+00  0.000000000000E+00
  0.000000000000E+00  0.000000000000E+00  0.000000000000E+00  0.000000000000E+00
  0.000000000000E+00  0.000000000000E+00  0.000000000000E+00  0.000000000000E+00
  0.000000000000E+00  0.000000000000E+00  0.000000000000E+00  0.000000000000E+00
  0.000000000000E+00  0.000000000000E+00  0.000000000000E+00  0.000000000000E+00
  0.000000000000E+00  0.000000000000E+00  0.000000000000E+00  0.000000000000E+00
  0.000000000000E+00  0.000000000000E+00  0.000000000000E+00  0.000000000000E+00
  0.000000000000E+00  0.000000000000E+00
</data>
</radfunc>
</pseudocore-charge>
<semilocal-potentials set="scalar_relativistic">
<slps n="4" l="s" rc="1.35649932364">
<radfunc>
<data npts="290">
  6.569607747713E+01  6.562932734520E+01  6.543033828383E+01  6.510018272943E+01
  6.464490973253E+01  6.405282875506E+01  6.330881940449E+01  6.247110730357E+01
  6.154686984175E+01  6.049199170909E+01  5.933156151975E+01  5.810334321075E+01
  5.666303814487E+01  5.520791501726E+01  5.355260639555E+01  5.196205890322E+01
  5.020349862440E+01  4.860446528368E+01  4.688088529591E+01  4.503133700397E+01
  4.305610528197E+01  4.138685796142E+01  3.964069020146E+01  3.782066632573E+01
  3.593081941160E+01  3.397616251485E+01  3.196267492862E+01  3.041807222691E+01
  2.884747692059E+01  2.725437205147E+01  2.564246360393E+01  2.401564946483E+01
  2.237798460915E+01  2.073364317124E+01  1.908687817540E+01  1.744197978796E+01
  1.580323301179E+01  1.417487576973E+01  1.309713053039E+01  1.202705009773E+01
  1.096580486059E+01  9.914531092996E+00  8.874326879292E+00  7.846248423560E+00
  6.831306771432E+00  5.830464966867E+00  4.844635660518E+00  3.874679180487E+00
  2.921402070486E+00  1.985556094856E+00  1.067837704661E+00  1.688879541460E-01
 -7.107071475690E-01 -1.570415868698E+00 -2.409759593474E+00 -3.228311292824E+00
 -4.025693654991E+00 -4.801576905937E+00 -5.555676350818E+00 -6.287749668819E+00
 -6.997593994276E+00 -7.685042817283E+00 -8.349962737072E+00 -8.992250101320E+00
 -9.611827564265E+00 -1.020864059637E+01 -1.078265397794E+01 -1.106110421391E+01
 -1.133384830918E+01 -1.160088574594E+01 -1.186221656936E+01 -1.211784128492E+01
 -1.236776075805E+01 -1.261197611603E+01 -1.285048865257E+01 -1.308329973535E+01
 -1.331041071680E+01 -1.353182284838E+01 -1.374753719879E+01 -1.395755457648E+01
 -1.416187545655E+01 -1.436049991282E+01 -1.455342755504E+01 -1.474065747204E+01
 -1.492218818085E+01 -1.509801758259E+01 -1.526814292535E+01 -1.543256077463E+01
 -1.559126699184E+01 -1.574425672133E+01 -1.589152438641E+01 -1.603306369502E+01
 -1.616886765531E+01 -1.629892860182E+01 -1.642323823242E+01 -1.654178765664E+01
 -1.665456745540E+01 -1.676156775241E+01 -1.686277829722E+01 -1.695818855968E+01
 -1.704778783545E+01 -1.713156536186E+01 -1.720951044318E+01 -1.728161258413E+01
 -1.734786162991E+01 -1.740824791095E+01 -1.746276239023E+01 -1.751139681058E+01
 -1.755414383944E+01 -1.759099720815E+01 -1.762195184326E+01 -1.764700398697E+01
 -1.766615130463E+01 -1.767939297739E+01 -1.768672977885E+01 -1.768816413530E+01
 -1.768370017022E+01 -1.767334373452E+01 -1.765710242520E+01 -1.763498559624E+01
 -1.760700436630E+01 -1.757317162902E+01 -1.753350207221E+01 -1.748801221303E+01
 -1.743672045652E+01 -1.737964718531E+01 -1.731681488856E+01 -1.724824833794E+01
 -1.717397481910E+01 -1.709402442689E+01 -1.700843043282E+01 -1.691722973389E+01
 -1.682046339224E+01 -1.671817727585E+01 -1.661042281153E+01 -1.649725786223E+01
 -1.637874774195E+01 -1.625496638247E+01 -1.612599766706E+01 -1.599193694675E+01
 -1.585289275498E+01 -1.570898873574E+01 -1.556036579863E+01 -1.540718451168E+01
 -1.524962773830E+01 -1.508790351873E+01 -1.492224818824E+01 -1.475292971401E+01
 -1.458025121921E+01 -1.440455464776E+01 -1.422622450379E+01 -1.404569157934E+01
 -1.386343655915E+01 -1.367999336541E+01 -1.349595207747E+01 -1.331196123254E+01