<?xml version="1.0" encoding="UTF-8" ?>
<psml version="1.1" energy_unit="hartree" length_unit="bohr"
 uuid="d9c33290-470f-11e8-430d-bd20f87f5c5c"
 xmlns="http://esl.cecam.org/PSML/ns/1.1">
<provenance creator="ONCVPSP-3.3.0+psml-3.3.0-73 (fully-relativistic)"
 date="2018-04-23">
<annotation action="semilocal-pseudopotential-generation"
 action-cont="projectors-generation" />
<input-file name="oncvpsp-input">
<![CDATA[# atsym z nc nv iexc psfile
N 7 1 2 4 both
# n l f
1 0 2.0
2 0 2.0
2 1 3.0
# lmax
1
# l rc ep ncon nbas qcut
0 1.2 0.0 4 8 8.8
1 1.35 0.0 4 8 9.0
# lloc lpopt rc5 dvloc0
4 5 1.2 0.0
# l nproj debl
0 2 1.0
1 2 1.0
# icmod fcfact
3 4 1.5
# epsh1 epsh2 depsh
-12.0 12.0 0.02
# rlmax drl
6.0 0.01
 0
]]>
</input-file>
</provenance>
<pseudo-atom-spec atomic-label="N" atomic-number="7" z-pseudo="5"
 flavor="Hamann&apos;s oncvpsp" relativity="dirac" spin-dft="no"
 core-corrections="yes">
<annotation pseudo-energy="-9.66879917535" />
<exchange-correlation>
<annotation oncvpsp-xc-code="4" oncvpsp-xc-type="GGA -- Perdew-Burke-Ernzerhof" />
<libxc-info number-of-functionals="2">
<functional name="Perdew, Burke &amp; Ernzerhof (GGA)" type="exchange" id="101" />
<functional name="Perdew, Burke &amp; Ernzerhof (GGA)" type="correlation"
 id="130" />
</libxc-info>
</exchange-correlation>
<valence-configuration total-valence-charge="5">
<shell n="2" l="s" occupation="2" />
<shell n="2" l="p" occupation="3" />
</valence-configuration>
</pseudo-atom-spec>
<grid npts="457">
<annotation type="sampled from oncvpsp log grid"
 recipe="r(i:1..N) = r1*exp(a*(i-1)) + r=0; resampled"
 recipe-cont="r1: scale; a: step" scale="0.714285714286E-04"
 step="0.119285708653E-01" delta="0.500000000000E-02" rmax="44.2267415588" />
<grid-data>
  0.000000000000E+00  5.050273848726E-03  1.008752568157E-02  1.513289708366E-02
  2.014904090835E-02  2.527458982023E-02  3.058949562954E-02  3.572061921814E-02
  4.072908151017E-02  4.588912125880E-02  5.108981780357E-02  5.620545319168E-02
  6.183331834590E-02  6.721808592128E-02  7.307178711718E-02  7.849333904832E-02
  8.431714233393E-02  8.949905332213E-02  9.499943100341E-02  1.008378475076E-01
  1.070350778164E-01  1.122659819048E-01  1.177525251550E-01  1.235072008914E-01
  1.295431129985E-01  1.358740057603E-01  1.425142951564E-01  1.477066222222E-01
  1.530881251201E-01  1.586656962307E-01  1.644464790501E-01  1.704378773384E-01
  1.766475646022E-01  1.830834939228E-01  1.897539081417E-01  1.966673504179E-01
  2.038326751695E-01  2.112590594141E-01  2.163596981446E-01  2.215834866966E-01
  2.269333983994E-01  2.324124783703E-01  2.380238452481E-01  2.437706929678E-01
  2.496562925788E-01  2.556839941068E-01  2.618572284605E-01  2.681795093845E-01
  2.746544354591E-01  2.812856921488E-01  2.880770539000E-01  2.950323862894E-01
  3.021556482240E-01  3.094508941947E-01  3.169222765841E-01  3.245740480300E-01
  3.324105638456E-01  3.404362844991E-01  3.486557781520E-01  3.570737232597E-01
  3.656949112341E-01  3.745242491710E-01  3.835667626430E-01  3.928275985602E-01
  4.023120280998E-01  4.120254497063E-01  4.219733921640E-01  4.270370728700E-01
  4.321615177444E-01  4.373474559573E-01  4.425956254288E-01  4.479067729340E-01
  4.532816542092E-01  4.587210340597E-01  4.642256864684E-01  4.697963947060E-01
  4.754339514425E-01  4.811391588598E-01  4.869128287661E-01  4.927557827113E-01
  4.986688521039E-01  5.046528783291E-01  5.107087128690E-01  5.168372174235E-01
  5.230392640326E-01  5.293157352009E-01  5.356675240234E-01  5.420955343116E-01
  5.486006807234E-01  5.551838888921E-01  5.618460955588E-01  5.685882487055E-01
  5.754113076899E-01  5.823162433822E-01  5.893040383028E-01  5.963756867624E-01
  6.035321950036E-01  6.107745813436E-01  6.181038763198E-01  6.255211228356E-01
  6.330273763096E-01  6.406237048253E-01  6.483111892832E-01  6.560909235546E-01
  6.639640146373E-01  6.719315828129E-01  6.799947618067E-01  6.881546989484E-01
  6.964125553358E-01  7.047695059998E-01  7.132267400718E-01  7.217854609526E-01
  7.304468864841E-01  7.392122491219E-01  7.480827961113E-01  7.570597896647E-01
  7.661445071407E-01  7.753382412263E-01  7.846423001211E-01  7.940580077225E-01
  8.035867038152E-01  8.132297442610E-01  8.229885011921E-01  8.328643632064E-01
  8.428587355649E-01  8.529730403917E-01  8.632087168764E-01  8.735672214789E-01
  8.840500281366E-01  8.946586284743E-01  9.053945320160E-01  9.162592664001E-01
  9.272543775969E-01  9.383814301281E-01  9.496420072896E-01  9.610377113771E-01
  9.725701639136E-01  9.842410058806E-01  9.960518979512E-01  1.008004520727E+00
  1.020100574975E+00  1.032341781875E+00  1.044729883258E+00  1.057266641857E+00
  1.069953841559E+00  1.082793287658E+00  1.095786807109E+00  1.108936248795E+00
  1.122243483780E+00  1.135710405586E+00  1.149338930453E+00  1.163130997618E+00
  1.177088569590E+00  1.191213632425E+00  1.205508196014E+00  1.219974294366E+00
  1.234613985898E+00  1.249429353729E+00  1.264422505974E+00  1.279595576046E+00
  1.294950722958E+00  1.310490131634E+00  1.326216013213E+00  1.342130605372E+00
  1.358236172636E+00  1.374535006708E+00  1.391029426788E+00  1.407721779910E+00
  1.424614441269E+00  1.441709814564E+00  1.459010332339E+00  1.476518456327E+00
  1.494236677803E+00  1.512167517936E+00  1.530313528152E+00  1.548677290489E+00
  1.567261417975E+00  1.586068554991E+00  1.605101377651E+00  1.624362594183E+00
  1.643854945313E+00  1.663581204657E+00  1.683544179112E+00  1.703746709262E+00
  1.724191669773E+00  1.744881969810E+00  1.765820553448E+00  1.787010400089E+00
  1.808454524890E+00  1.830155979189E+00  1.852117850939E+00  1.874343265151E+00
  1.896835384332E+00  1.919597408944E+00  1.942632577852E+00  1.965944168786E+00
  1.989535498811E+00  2.013409924797E+00  2.037570843895E+00  2.062021694021E+00
  2.086765954350E+00  2.111807145802E+00  2.137148831552E+00  2.162794617530E+00
  2.188748152940E+00  2.215013130776E+00  2.241593288345E+00  2.268492407805E+00
  2.295714316699E+00  2.323262888499E+00  2.351142043161E+00  2.379355747679E+00
  2.407908016651E+00  2.436802912851E+00  2.466044547805E+00  2.495637082379E+00
  2.525584727368E+00  2.555891744096E+00  2.586562445025E+00  2.617601194365E+00
  2.649012408698E+00  2.680800557602E+00  2.712970164293E+00  2.745525806265E+00
  2.778472115940E+00  2.811813781331E+00  2.845555546707E+00  2.879702213268E+00
  2.914258639827E+00  2.949229743505E+00  2.984620500427E+00  3.020435946432E+00
  3.056681177789E+00  3.093361351923E+00  3.130481688146E+00  3.168047468404E+00
  3.206064038025E+00  3.244536806481E+00  3.283471248159E+00  3.322872903137E+00
  3.362747377974E+00  3.403100346510E+00  3.443937550668E+00  3.485264801276E+00
  3.527087978891E+00  3.569413034638E+00  3.612245991054E+00  3.655592942946E+00
  3.699460058262E+00  3.743853578961E+00  3.788779821908E+00  3.834245179771E+00
  3.880256121928E+00  3.926819195392E+00  3.973941025736E+00  4.021628318045E+00
  4.069887857862E+00  4.118726512156E+00  4.168151230302E+00  4.218169045066E+00
  4.268787073606E+00  4.320012518490E+00  4.371852668711E+00  4.424314900736E+00
  4.477406679545E+00  4.531135559699E+00  4.585509186416E+00  4.640535296653E+00
  4.696221720213E+00  4.752576380855E+00  4.809607297425E+00  4.867322584994E+00
  4.925730456014E+00  4.984839221487E+00  5.044657292144E+00  5.105193179650E+00
  5.166455497806E+00  5.228452963780E+00  5.291194399345E+00  5.354688732137E+00
  5.418944996923E+00  5.483972336886E+00  5.549780004928E+00  5.616377364988E+00
  5.683773893367E+00  5.751979180088E+00  5.821002930249E+00  5.890854965412E+00
  5.961545224997E+00  6.033083767697E+00  6.105480772909E+00  6.178746542184E+00
  6.252891500690E+00  6.327926198699E+00  6.403861313083E+00  6.480707648840E+00
  6.558476140626E+00  6.637177854314E+00  6.716823988565E+00  6.797425876428E+00
  6.878994986945E+00  6.961542926789E+00  7.045081441910E+00  7.129622419213E+00
  7.215177888244E+00  7.301760022902E+00  7.389381143177E+00  7.478053716895E+00
  7.567790361498E+00  7.658603845836E+00  7.750507091986E+00  7.843513177090E+00
  7.937635335215E+00  8.032886959238E+00  8.129281602749E+00  8.226832981982E+00
  8.325554977765E+00  8.425461637498E+00  8.526567177148E+00  8.628885983274E+00
  8.732432615074E+00  8.837221806454E+00  8.943268468132E+00  9.050587689749E+00
  9.159194742026E+00  9.269105078931E+00  9.380334339878E+00  9.492898351956E+00
  9.606813132180E+00  9.722094889766E+00  9.838760028443E+00  9.956825148785E+00
  1.007630705057E+01  1.019722273518E+01  1.031958940800E+01  1.044342448089E+01
  1.056874557467E+01  1.069557052156E+01  1.082391736782E+01  1.095380437623E+01
  1.108525002875E+01  1.121827302909E+01  1.135289230544E+01  1.148912701311E+01
  1.162699653727E+01  1.176652049571E+01  1.190771874166E+01  1.205061136656E+01
  1.219521870296E+01  1.234156132740E+01  1.248966006332E+01  1.263953598408E+01
  1.279121041589E+01  1.294470494088E+01  1.310004140017E+01  1.325724189698E+01
  1.341632879974E+01  1.357732474534E+01  1.374025264228E+01  1.390513567399E+01
  1.407199730208E+01  1.424086126970E+01  1.441175160494E+01  1.458469262420E+01
  1.475970893569E+01  1.493682544292E+01  1.511606734823E+01  1.529746015641E+01
  1.548102967829E+01  1.566680203443E+01  1.585480365884E+01  1.604506130275E+01
  1.623760203838E+01  1.643245326284E+01  1.662964270199E+01  1.682919841442E+01
  1.703114879539E+01  1.723552258093E+01  1.744234885191E+01  1.765165703813E+01
  1.786347692259E+01  1.807783864566E+01  1.829477270940E+01  1.851430998192E+01
  1.873648170170E+01  1.896131948212E+01  1.918885531591E+01  1.941912157970E+01
  1.965215103865E+01  1.988797685112E+01  2.012663257333E+01  2.036815216421E+01
  2.061256999018E+01  2.085992083006E+01  2.111023988002E+01  2.136356275858E+01
  2.161992551169E+01  2.187936461783E+01  2.214191699324E+01  2.240761999716E+01
  2.267651143713E+01  2.294862957437E+01  2.322401312927E+01  2.350270128682E+01
  2.378473370226E+01  2.407015050669E+01  2.435899231277E+01  2.465130022052E+01
  2.494711582316E+01  2.524648121304E+01  2.554943898760E+01  2.585603225545E+01
  2.616630464252E+01  2.648030029823E+01  2.679806390180E+01  2.711964066863E+01
  2.744507635665E+01  2.777441727293E+01  2.810771028020E+01  2.844500280357E+01
  2.878634283721E+01  2.913177895126E+01  2.948136029867E+01  2.983513662226E+01
  3.019315826172E+01  3.055547616086E+01  3.092214187479E+01  3.129320757729E+01
  3.166872606822E+01  3.204875078104E+01  3.243333579041E+01  3.282253581989E+01
  3.321640624973E+01  3.361500312473E+01  3.401838316223E+01  3.442660376017E+01
  3.483972300530E+01  3.525779968136E+01  3.568089327754E+01  3.610906399687E+01
  3.654237276483E+01  3.698088123801E+01  3.742465181286E+01  3.787374763462E+01
  3.832823260623E+01  3.878817139751E+01  3.925362945428E+01  3.972467300773E+01
  4.020136908382E+01  4.068378551283E+01  4.117199093898E+01  4.166605483025E+01
  4.216604748821E+01  4.267204005807E+01  4.318410453877E+01  4.370231379323E+01
  4.422674155875E+01
</grid-data>
</grid>
<valence-charge total-charge="5" is-unscreening-charge="yes"
 rescaled-to-z-pseudo="no">
<radfunc>
<data npts="457">
  1.020059500358E+00  1.021228853408E+00  1.024723637605E+00  1.030551472223E+00
  1.038648624560E+00  1.049285727573E+00  1.062826461627E+00  1.078309597925E+00
  1.095690456534E+00  1.115921493391E+00  1.138676554866E+00  1.163351110911E+00
  1.193090204568E+00  1.224054364883E+00  1.260455924156E+00  1.296674119887E+00
  1.338211618417E+00  1.377417962303E+00  1.421299546413E+00  1.470372061070E+00
  1.525196740319E+00  1.573604776467E+00  1.626414519976E+00  1.683976715351E+00
  1.746659487549E+00  1.814846732117E+00  1.888935759781E+00  1.948620424786E+00
  2.012028204537E+00  2.079333956114E+00  2.150711554110E+00  2.226332042759E+00
  2.306361460166E+00  2.390958298436E+00  2.480270562477E+00  2.574432390050E+00
  2.673560196431E+00  2.777748309345E+00  2.850052856554E+00  2.924649200120E+00
  3.001542332810E+00  3.080729227154E+00  3.162197949387E+00  3.245926723239E+00
  3.331882945300E+00  3.420022154664E+00  3.510286960584E+00  3.602605933177E+00
  3.696892463549E+00  3.793043601343E+00  3.890938879404E+00  3.990439137201E+00
  4.091385356721E+00  4.193597526780E+00  4.296873554091E+00  4.400988241912E+00
  4.505692359682E+00  4.610711829629E+00  4.715747058933E+00  4.820472448466E+00
  4.924536111416E+00  5.027559837049E+00  5.129139336398E+00  5.228844807643E+00
  5.326221859190E+00  5.420792827800E+00  5.512058527440E+00  5.556290555077E+00
  5.599500461584E+00  5.641620861223E+00  5.682583527369E+00  5.722319505425E+00
  5.760759234103E+00  5.797832675096E+00  5.833469451121E+00  5.867598992279E+00
  5.900150690612E+00  5.931054062695E+00  5.960238920031E+00  5.987635546982E+00
  6.013174885879E+00  6.036788728908E+00  6.058409916304E+00  6.077972540309E+00
  6.095412154290E+00  6.110665986343E+00  6.123673156639E+00  6.134374897718E+00
  6.142714776853E+00  6.148638919559E+00  6.152096233263E+00  6.153038630101E+00
  6.151421247761E+00  6.147202667247E+00  6.140345126417E+00  6.130814728119E+00
  6.118581641725E+00  6.103620296878E+00  6.085909568255E+00  6.065432950163E+00
  6.042178719832E+00  6.016140088267E+00  5.987315337618E+00  5.955707944032E+00
  5.921326685057E+00  5.884185730718E+00  5.844304717489E+00  5.801708804441E+00
  5.756428710972E+00  5.708500735601E+00  5.657966755391E+00  5.604874205691E+00
  5.549276039929E+00  5.491230669312E+00  5.430801882317E+00  5.368058743952E+00
  5.303075474774E+00  5.235931309712E+00  5.166710336731E+00  5.095501315375E+00
  5.022397475215E+00  4.947496294183E+00  4.870899256720E+00  4.792711591630E+00
  4.713041989446E+00  4.632002299090E+00  4.549707203533E+00  4.466273874154E+00
  4.381821603511E+00  4.296471416260E+00  4.210345658080E+00  4.123567562618E+00
  4.036260796724E+00  3.948548984547E+00  3.860555211531E+00  3.772401509841E+00
  3.684208327427E+00  3.596093983628E+00  3.508174115118E+00  3.420561116879E+00
  3.333363583923E+00  3.246685760509E+00  3.160627004674E+00  3.075281276911E+00
  2.990736662766E+00  2.907074939960E+00  2.824371201203E+00  2.742693544245E+00
  2.662102840697E+00  2.582652594744E+00  2.504388902032E+00  2.427350517597E+00
  2.351569039793E+00  2.277069214629E+00  2.203869361856E+00  2.131982107706E+00
  2.061416003004E+00  1.992177635340E+00  1.924272577425E+00  1.857705784147E+00
  1.792482340680E+00  1.728607996637E+00  1.666089632945E+00  1.604935613234E+00
  1.545156001378E+00  1.486762317020E+00  1.429765888824E+00  1.374175549928E+00
  1.319997331377E+00  1.267234938305E+00  1.215889648947E+00  1.165960431930E+00
  1.117444033832E+00  1.070335072255E+00  1.024626131085E+00  9.803078574828E-01
  9.373690601919E-01  8.957968088154E-01  8.555765336690E-01  8.166921258681E-01
  7.791260373067E-01  7.428593802070E-01  7.078720259238E-01  6.741427027334E-01
  6.416490923167E-01  6.103679246926E-01  5.802750713625E-01  5.513456364576E-01
  5.235540456749E-01  4.968741328370E-01  4.712792239086E-01  4.467422183254E-01
  4.232356675111E-01  4.007318504734E-01  3.792028463875E-01  3.586206040908E-01
  3.389570084290E-01  3.201839434088E-01  3.022733521247E-01  2.851972934435E-01
  2.689279954399E-01  2.534379055913E-01  2.386997377472E-01  2.246865159027E-01
  2.113716148127E-01  1.987287974914E-01  1.867322496516E-01  1.753566111445E-01
  1.645770044660E-01  1.543690604032E-01  1.447089408990E-01  1.355733592160E-01
  1.269395974890E-01  1.187855217533E-01  1.110895945447E-01  1.038308851654E-01
  9.698907771557E-02  9.054447699058E-02  8.447801234566E-02  7.877123963215E-02
  7.340634130922E-02  6.836612483658E-02  6.363401945359E-02  5.919407145048E-02
  5.503093803714E-02  5.112987991436E-02  4.747675265151E-02  4.405799697353E-02
  4.086062805837E-02  3.787222394473E-02  3.508091314664E-02  3.247536157052E-02
  3.004475882605E-02  2.777880402005E-02  2.566769111889E-02  2.370209396148E-02
  2.187315100094E-02  2.017244984934E-02  1.859201169541E-02  1.712427566126E-02
  1.576208315943E-02  1.449866230751E-02  1.332761245286E-02  1.224288885578E-02
  1.123878757495E-02  1.030993059464E-02  9.451251229062E-03  8.657979835019E-03
  7.925629860096E-03  7.249984249745E-03  6.627082233017E-03  6.053206503187E-03
  5.524870806240E-03  5.038807947110E-03  4.591958220669E-03  4.181458271826E-03
  3.804630386602E-03  3.458972213846E-03  3.142146915184E-03  2.851973738995E-03
  2.586419012559E-03  2.343587545114E-03  2.121714433291E-03  1.919157259346E-03
  1.734388671735E-03  1.565989336798E-03  1.412641249807E-03  1.273121393117E-03
  1.146295728929E-03  1.031113513908E-03  9.266019228617E-04  8.318609686779E-04
  7.460587057886E-04  6.684267046261E-04  5.982557847271E-04  5.348919944309E-04
  4.777328254261E-04  4.262236507475E-04  3.798543751975E-04  3.381562875532E-04
  3.006991043204E-04  2.670881951995E-04  2.369619808338E-04  2.099894938119E-04
  1.858680942889E-04  1.643213319785E-04  1.450969466397E-04  1.279649995424E-04
  1.127161287454E-04  9.915992135007E-05  8.712339621343E-05  7.644959090743E-05
  6.699624700123E-05  5.863458802004E-05  5.124818469755E-05  4.473190239080E-05
  3.899092576618E-05  3.393985609517E-05  2.950187671790E-05  2.560798244330E-05
  2.219626885658E-05  1.921127769932E-05  1.660339467393E-05  1.432829620485E-05
  1.234644186247E-05  1.062260932336E-05  9.125468902905E-06  7.827194852640E-06
  6.703110766251E-06  5.731366584506E-06  4.892644830606E-06  4.169893844057E-06
  3.548085912732E-06  3.013998329756E-06  2.556015523939E-06  2.163950529960E-06
  1.828884177185E-06  1.543020484062E-06  1.299556848351E-06  1.092567722153E-06
  9.169005547421E-07  7.680828756557E-07  6.422394754108E-07  5.360187216137E-07
  4.465271242197E-07  3.712713353408E-07  3.081068363901E-07  2.551926285965E-07
  2.109513021349E-07  1.740339144205E-07  1.432891596413E-07  1.177363594958E-07
  9.654184950255E-08  7.899837630963E-08  6.450715931691E-08  5.256230477569E-08
  4.273729252590E-08  3.467328481778E-08  2.806903340975E-08  2.267218549162E-08
  1.827181110904E-08  1.469199481256E-08  1.178635237096E-08  9.433349715927E-09
  7.532315962045E-09  6.000055503460E-09  4.767975953016E-09  3.779659179455E-09
  2.988812026893E-09  2.357541573917E-09  1.854907106666E-09  1.455707433908E-09
  1.139467848506E-09  8.895960184959E-10  6.926804457287E-10  5.379089281958E-10
  4.165877654467E-10  3.217453112027E-10  2.478059544468E-10  1.903227461350E-10
  1.457587248712E-10  1.113085688131E-10  8.475354618687E-11  6.434388290509E-11
  4.870363940237E-11  3.675401336708E-11  2.765168123456E-11  2.073937728327E-11
  1.550640084622E-11  1.155715339543E-11  8.586150133456E-12  6.358235677115E-12
  4.692969505921E-12  3.452332440718E-12  2.531134192299E-12  1.849416350796E-12
  1.346639647451E-12  9.771086938522E-13  0.000000000000E+00  0.000000000000E+00
  0.000000000000E+00  0.000000000000E+00  0.000000000000E+00  0.000000000000E+00
  0.000000000000E+00  0.000000000000E+00  0.000000000000E+00  0.000000000000E+00
  0.000000000000E+00  0.000000000000E+00  0.000000000000E+00  0.000000000000E+00
  0.000000000000E+00  0.000000000000E+00  0.000000000000E+00  0.000000000000E+00
  0.000000000000E+00  0.000000000000E+00  0.000000000000E+00  0.000000000000E+00
  0.000000000000E+00  0.000000000000E+00  0.000000000000E+00  0.000000000000E+00
  0.000000000000E+00  0.000000000000E+00  0.000000000000E+00  0.000000000000E+00
  0.000000000000E+00  0.000000000000E+00  0.000000000000E+00  0.000000000000E+00
  0.000000000000E+00  0.000000000000E+00  0.000000000000E+00  0.000000000000E+00
  0.000000000000E+00  0.000000000000E+00  0.000000000000E+00  0.000000000000E+00
  0.000000000000E+00  0.000000000000E+00  0.000000000000E+00  0.000000000000E+00
  0.000000000000E+00  0.000000000000E+00  0.000000000000E+00  0.000000000000E+00
  0.000000000000E+00  0.000000000000E+00  0.000000000000E+00  0.000000000000E+00
  0.000000000000E+00  0.000000000000E+00  0.000000000000E+00  0.000000000000E+00
  0.000000000000E+00  0.000000000000E+00  0.000000000000E+00  0.000000000000E+00
  0.000000000000E+00  0.000000000000E+00  0.000000000000E+00  0.000000000000E+00
  0.000000000000E+00  0.000000000000E+00  0.000000000000E+00  0.000000000000E+00
  0.000000000000E+00  0.000000000000E+00  0.000000000000E+00  0.000000000000E+00
  0.000000000000E+00  0.000000000000E+00  0.000000000000E+00  0.000000000000E+00
  0.000000000000E+00
</data>
</radfunc>
</valence-charge>
<pseudocore-charge matching-radius="0.453281654209"
 number-of-continuous-derivatives="4">
<annotation model-charge-form="Teter function with specified parameters" />
<radfunc>
<data npts="290">
  2.399755496953E+01  2.399337226501E+01  2.398087133487E+01  2.396002409324E+01
  2.393105714903E+01  2.389300029361E+01  2.384454931225E+01  2.378914025387E+01
  2.372692981805E+01  2.365450435833E+01  2.357302551714E+01  2.348465226184E+01
  2.337811022043E+01  2.326714405851E+01  2.313664509118E+01  2.300675229747E+01
  2.285771819083E+01  2.271698384702E+01  2.255939159238E+01  2.238305999320E+01
  2.218593459197E+01  2.201176815905E+01  2.182164109608E+01  2.161425258879E+01
  2.138822971720E+01  2.114213107331E+01  2.087445258748E+01  2.065859631243E+01
  2.042905206139E+01  2.018513619333E+01  1.992615945219E+01  1.965143216000E+01
  1.936027037067E+01  1.905200308518E+01  1.872598062940E+01  1.838158429380E+01
  1.801823732831E+01  1.763541737563E+01  1.736915826825E+01  1.709392647522E+01
  1.680962622118E+01  1.651618281701E+01  1.621354514030E+01  1.590168824351E+01
  1.558061608187E+01  1.525036435022E+01  1.491100341424E+01  1.456264131822E+01
  1.420542684690E+01  1.383955261431E+01  1.346525814787E+01  1.308283292973E+01
  1.269261935232E+01  1.229501553809E+01  1.189047796755E+01  1.147952385274E+01
  1.106273318676E+01  1.064075039349E+01  1.021428549549E+01  9.784114712515E+00
  9.351080398398E+00  8.916090220691E+00  8.480115485538E+00  8.044188510500E+00
  7.609398950713E+00  7.176888989439E+00  6.747847313216E+00  6.535009491256E+00
  6.323501805013E+00  6.113482447216E+00  5.905110906450E+00  5.698547622857E+00
  5.493953622752E+00  5.291490132486E+00  5.091318172054E+00  4.893598129086E+00
  4.698489314061E+00  4.506149497753E+00  4.316734432095E+00  4.130397355886E+00
  3.947288486952E+00  3.767554502578E+00  3.591338010282E+00  3.418777011200E+00
  3.250004358582E+00  3.085147214135E+00  2.924326505159E+00  2.767656385656E+00
  2.615243704771E+00  2.467187486163E+00  2.323578422046E+00  2.184498385825E+00
  2.050019967390E+00  1.920206035247E+00  1.795109329736E+00  1.674772091654E+00
  1.559225730600E+00  1.448490537331E+00  1.342575444333E+00  1.241477838689E+00
  1.145183431142E+00  1.053666184994E+00  9.668883081995E-01  8.848003116411E-01
  8.073411361348E-01  7.344383502430E-01  6.660084203965E-01  6.019570542322E-01
  5.421796173357E-01  4.865616229165E-01  4.349792930773E-01  3.873001895817E-01
  3.433839111310E-01  3.030828532886E-01  2.662430262926E-01  2.327049251001E-01
  2.023044451278E-01  1.748738362980E-01  1.502426872020E-01  1.282389304466E-01
  1.086898596002E-01  9.142314759852E-02  7.626785603662E-02  6.305542448151E-02
  5.162062879668E-02  4.180249750179E-02  3.344517540228E-02  2.639872412915E-02
  2.051984983293E-02  1.567254908200E-02  1.172866502060E-02  8.568347039918E-03
  6.080408593724E-03  4.162579330563E-03  2.721649393289E-03  1.673505524606E-03
  9.430604793041E-04  4.640791402460E-04  1.789066216710E-04  3.810547283273E-05
  1.081760589055E-08  3.021383135150E-05  1.009853155106E-04  1.906522363335E-04
  2.829409045560E-04  3.663009518655E-04  4.332243801795E-04  4.795737037322E-04
  5.039325661016E-04  5.069912019504E-04  4.909777475517E-04  4.591447204034E-04
  4.153180355601E-04  3.635137667632E-04  3.076255673474E-04  2.511833214271E-04
  1.971812880480E-04  1.479718200408E-04  1.052187735159E-04  6.990305520694E-05
  4.237145427745E-05  2.241902863853E-05  9.394900135586E-06  2.321372868715E-06
  1.681491808829E-08  1.213701386672E-06  4.664547212674E-06  9.230080965101E-06
  1.394582712842E-05  1.806516295276E-05  2.107877969219E-05  2.271219164275E-05
  2.290439428719E-05  2.177188716107E-05  1.956298453940E-05  1.660760466067E-05
  1.326755653130E-05  9.891767434997E-06  6.779981570274E-06  4.157305613803E-06
  2.160694943464E-06  8.371888460766E-07  1.525365393679E-07  7.916835450256E-09
  2.618266449665E-07  7.539474895436E-07  1.327905572557E-06  1.850289527917E-06
  2.224012421129E-06  2.395002095670E-06  2.352158752471E-06  2.121408331333E-06
  1.755393352783E-06  1.320793479409E-06  8.854076013339E-07  5.069534916131E-07
  2.250909695487E-07  5.753047766578E-08  3.590038627541E-10  0.000000000000E+00
  0.000000000000E+00  0.000000000000E+00  0.000000000000E+00  0.000000000000E+00
  0.000000000000E+00  0.000000000000E+00  0.000000000000E+00  0.000000000000E+00
  0.000000000000E+00  0.000000000000E+00  0.000000000000E+00  0.000000000000E+00
  0.000000000000E+00  0.000000000000E+00  0.000000000000E+00  0.000000000000E+00
  0.000000000000E+00  0.000000000000E+00  0.000000000000E+00  0.000000000000E+00
  0.000000000000E+00  0.000000000000E+00  0.000000000000E+00  0.000000000000E+00
  0.000000000000E+00  0.000000000000E+00  0.000000000000E+00  0.000000000000E+00
  0.000000000000E+00  0.000000000000E+00  0.000000000000E+00  0.000000000000E+00
  0.000000000000E+00  0.000000000000E+00  0.000000000000E+00  0.000000000000E+00
  0.000000000000E+00  0.000000000000E+00  0.000000000000E+00  0.000000000000E+00
  0.000000000000E+00  0.000000000000E+00  0.000000000000E+00  0.000000000000E+00
  0.000000000000E+00  0.000000000000E+00  0.000000000000E+00  0.000000000000E+00
  0.000000000000E+00  0.000000000000E+00  0.000000000000E+00  0.000000000000E+00
  0.000000000000E+00  0.000000000000E+00  0.000000000000E+00  0.000000000000E+00
  0.000000000000E+00  0.000000000000E+00  0.000000000000E+00  0.000000000000E+00
  0.000000000000E+00  0.000000000000E+00  0.000000000000E+00  0.000000000000E+00
  0.000000000000E+00  0.000000000000E+00  0.000000000000E+00  0.000000000000E+00
  0.000000000000E+00  0.000000000000E+00  0.000000000000E+00  0.000000000000E+00
  0.000000000000E+00  0.000000000000E+00  0.000000000000E+00  0.000000000000E+00
  0.000000000000E+00  0.000000000000E+00  0.000000000000E+00  0.000000000000E+00
  0.000000000000E+00  0.000000000000E+00  0.000000000000E+00  0.000000000000E+00
  0.000000000000E+00  0.000000000000E+00  0.000000000000E+00  0.000000000000E+00
  0.000000000000E+00  0.000000000000E+00
</data>
</radfunc>
</pseudocore-charge>
<semilocal-potentials set="scalar_relativistic">
<slps n="2" l="s" rc="1.20550819601">
<radfunc>
<data npts="290">
  4.737502189880E+00  4.735471310340E+00  4.729401842469E+00  4.719280839639E+00
  4.705219460364E+00  4.686748434345E+00  4.663237298102E+00  4.636356224917E+00
  4.606183879496E+00  4.571068399143E+00  4.531577911193E+00  4.488763441248E+00
  4.437171200377E+00  4.383465409109E+00  4.320344092121E+00  4.257557267283E+00
  4.185569378379E+00  4.117641473143E+00  4.041636206061E+00  3.956668354307E+00
  3.861775841176E+00  3.778019801150E+00  3.686679700306E+00  3.587156644790E+00
  3.478822730122E+00  3.361023718252E+00  3.233082859818E+00  3.130054566341E+00
  3.020634191973E+00  2.904523232783E+00  2.781424105537E+00  2.651042872006E+00
  2.513092387452E+00  2.367295904468E+00  2.213391160505E+00  2.051134973195E+00
  1.880308361779E+00  1.700722205209E+00  1.576054415659E+00  1.447389504439E+00
  1.314701770900E+00  1.177975878925E+00  1.037207878586E+00  8.924062626552E-01
  7.435930532650E-01  5.908049128860E-01  4.340942728514E-01  2.735304714893E-01
  1.092008926630E-01 -5.878790562780E-02 -2.303090844321E-01 -4.052144518904E-01
 -5.833334407576E-01 -7.644721514917E-01 -9.484124782845E-01 -1.134911337117E+00
 -1.323700015977E+00 -1.514483668884E+00 -1.706940976391E+00 -1.900723995719E+00
 -2.095458225166E+00 -2.290742906219E+00 -2.486151587804E+00 -2.681232975285E+00
 -2.875512085941E+00 -3.068491730311E+00 -3.259654336424E+00 -3.354387464847E+00
 -3.448464131109E+00 -3.541814937900E+00 -3.634369689629E+00 -3.726057492837E+00
 -3.816806862710E+00 -3.906545835695E+00 -3.995202088329E+00 -4.082703062290E+00
 -4.168976095819E+00 -4.253948561590E+00 -4.337548011080E+00 -4.419702325642E+00
 -4.500339874303E+00 -4.579389678437E+00 -4.656781583300E+00 -4.732446436456E+00
 -4.806316272937E+00 -4.878324506824E+00 -4.948406128782E+00 -5.016497908724E+00
 -5.082538602498E+00 -5.146469160958E+00 -5.208232939409E+00 -5.267775904747E+00
 -5.325046836978E+00 -5.379997521274E+00 -5.432582925973E+00 -5.482761361383E+00
 -5.530494613868E+00 -5.575748049284E+00 -5.618490679899E+00 -5.658695189069E+00
 -5.696337908611E+00 -5.731398744727E+00 -5.763861049596E+00 -5.793711437551E+00
 -5.820939546577E+00 -5.845537748070E+00 -5.867500810299E+00 -5.886825521952E+00
 -5.903510287393E+00 -5.917554701378E+00 -5.928959118906E+00 -5.937724231110E+00
 -5.943850661683E+00 -5.947338596822E+00 -5.948187461519E+00 -5.946395654063E+00
 -5.941960349596E+00 -5.934877382576E+00 -5.925141216981E+00 -5.912745012392E+00
 -5.897680793593E+00 -5.879939731217E+00 -5.859512541060E+00 -5.836390010052E+00
 -5.810563657356E+00 -5.782026539385E+00 -5.750774207700E+00 -5.716805828185E+00
 -5.680125468770E+00 -5.640743560534E+00 -5.598678533400E+00 -5.553958622467E+00
 -5.506623834084E+00 -5.456728052235E+00 -5.404341255438E+00 -5.349551802574E+00
 -5.292468732946E+00 -5.233224011956E+00 -5.171974639535E+00 -5.108904524552E+00
 -5.044226015614E+00 -4.978180967784E+00 -4.911041216752E+00 -4.843108327877E+00
 -4.774712488260E+00 -4.706210416701E+00 -4.637982179781E+00 -4.570426823411E+00
 -4.503956758278E+00 -4.438990875144E+00 -4.375946411528E+00 -4.315229644269E+00
 -4.257225541482E+00 -4.202286228354E+00 -4.150722828124E+00 -4.101227299744E+00
 -4.052250936982E+00 -4.003832210387E+00 -3.955973683251E+00 -3.908690535975E+00
 -3.861994245347E+00 -3.815896994785E+00 -3.770409759653E+00 -3.725542033617E+00