<?xml version="1.0" encoding="UTF-8" ?>
<psml version="1.1" energy_unit="hartree" length_unit="bohr"
 uuid="ebe9b870-5170-11e8-5689-a538ff7fb6c1"
 xmlns="http://esl.cecam.org/PSML/ns/1.1">
<provenance creator="ONCVPSP-3.3.0+psml-3.3.0-73 (fully-relativistic)"
 date="2018-05-06">
<annotation action="semilocal-pseudopotential-generation"
 action-cont="projectors-generation" />
<input-file name="oncvpsp-input">
<![CDATA[# atsym z nc nv iexc psfile
Sr 38 6 3 4 both
# n l f
1 0 2.0
2 0 2.0
2 1 6.0
3 0 2.0
3 1 6.0
3 2 10.0
4 0 2.0
4 1 6.0
5 0 2.0
# lmax
2
# l rc ep ncon nbas qcut
0 1.5 0.0 3 8 6.8
1 1.3 0.0 4 8 8.2
2 1.5 0.0 4 8 8.6
# lloc lpopt rc5 dvloc0
4 5 1.3 0.0
# l nproj debl
0 2 1.0
1 2 3.0
2 2 3.5
# icmod fcfact rcfact
3 6.0 1.35
# epsh1 epsh2 depsh
-12.0 12.0 0.02
# rlmax drl
6.0 0.01
 0
]]>
</input-file>
</provenance>
<pseudo-atom-spec atomic-label="Sr" atomic-number="38" z-pseudo="10"
 flavor="Hamann&apos;s oncvpsp" relativity="dirac" spin-dft="no"
 core-corrections="yes">
<annotation pseudo-energy="-30.8954357495" />
<exchange-correlation>
<annotation oncvpsp-xc-code="4" oncvpsp-xc-type="GGA -- Perdew-Burke-Ernzerhof" />
<libxc-info number-of-functionals="2">
<functional name="Perdew, Burke &amp; Ernzerhof (GGA)" type="exchange" id="101" />
<functional name="Perdew, Burke &amp; Ernzerhof (GGA)" type="correlation"
 id="130" />
</libxc-info>
</exchange-correlation>
<valence-configuration total-valence-charge="10">
<shell n="4" l="s" occupation="2" />
<shell n="4" l="p" occupation="6" />
<shell n="5" l="s" occupation="2" />
</valence-configuration>
</pseudo-atom-spec>
<grid npts="457">
<annotation type="sampled from oncvpsp log grid"
 recipe="r(i:1..N) = r1*exp(a*(i-1)) + r=0; resampled"
 recipe-cont="r1: scale; a: step" scale="0.131578947368E-04"
 step="0.119285708653E-01" delta="0.500000000000E-02" rmax="44.3233076602" />
<grid-data>
  0.000000000000E+00  5.001285356115E-03  1.010955111220E-02  1.516593874179E-02
  2.019303497754E-02  2.532977517910E-02  3.065628572608E-02  3.579861277629E-02
  4.081801070727E-02  4.598931705399E-02  5.120136896821E-02  5.632817400049E-02
  6.196832721796E-02  6.736485206945E-02  7.323133442633E-02  7.866472394973E-02
  8.450124311626E-02  8.969446845692E-02  9.520685584117E-02  1.010580201333E-01
  1.072687816757E-01  1.125111070896E-01  1.180096298362E-01  1.237768705182E-01
  1.298259616315E-01  1.361706774698E-01  1.428254654891E-01  1.480291296502E-01
  1.534223826959E-01  1.590121320562E-01  1.648055368242E-01  1.708100169258E-01
  1.770332626221E-01  1.834832443594E-01  1.901682229770E-01  1.970967602872E-01
  2.042777300411E-01  2.117203292939E-01  2.168321049244E-01  2.220672992657E-01
  2.274288921392E-01  2.329199353110E-01  2.385435542291E-01  2.443029498024E-01
  2.502014002225E-01  2.562422628294E-01  2.624289760232E-01  2.687650612203E-01
  2.752541248584E-01  2.818998604490E-01  2.887060506796E-01  2.956765695673E-01
  3.028153846629E-01  3.101265593102E-01  3.176142549582E-01  3.252827335299E-01
  3.331363598482E-01  3.411796041204E-01  3.494170444823E-01  3.578533696043E-01
  3.664933813600E-01  3.753419975595E-01  3.844042547486E-01  3.936853110753E-01
  4.031904492259E-01  4.129250794320E-01  4.228947425498E-01  4.279694794604E-01
  4.331051132139E-01  4.383023745725E-01  4.435620030674E-01  4.488847471042E-01
  4.542713640694E-01  4.597226204382E-01  4.652392918835E-01  4.708221633861E-01
  4.764720293467E-01  4.821896936989E-01  4.879759700233E-01  4.938316816636E-01
  4.997576618435E-01  5.057547537857E-01  5.118238108311E-01  5.179656965611E-01
  5.241812849198E-01  5.304714603388E-01  5.368371178629E-01  5.432791632772E-01
  5.497985132366E-01  5.563960953954E-01  5.630728485402E-01  5.698297227226E-01
  5.766676793953E-01  5.835876915481E-01  5.905907438466E-01  5.976778327728E-01
  6.048499667661E-01  6.121081663673E-01  6.194534643637E-01  6.268869059360E-01
  6.344095488073E-01  6.420224633929E-01  6.497267329537E-01  6.575234537491E-01
  6.654137351941E-01  6.733987000164E-01  6.814794844166E-01  6.896572382296E-01
  6.979331250884E-01  7.063083225894E-01  7.147840224605E-01  7.233614307300E-01
  7.320417678988E-01  7.408262691136E-01  7.497161843429E-01  7.587127785551E-01
  7.678173318977E-01  7.770311398805E-01  7.863555135591E-01  7.957917797218E-01
  8.053412810784E-01  8.150053764514E-01  8.247854409688E-01  8.346828662604E-01
  8.446990606555E-01  8.548354493834E-01  8.650934747760E-01  8.754745964733E-01
  8.859802916310E-01  8.966120551306E-01  9.073713997921E-01  9.182598565896E-01
  9.292789748687E-01  9.404303225671E-01  9.517154864379E-01  9.631360722752E-01
  9.746937051425E-01  9.863900296042E-01  9.982267099595E-01  1.010205430479E+00
  1.022327895645E+00  1.034595830392E+00  1.047010980357E+00  1.059575112121E+00
  1.072290013467E+00  1.085157493629E+00  1.098179383552E+00  1.111357536155E+00
  1.124693826589E+00  1.138190152508E+00  1.151848434338E+00  1.165670615550E+00
  1.179658662936E+00  1.193814566892E+00  1.208140341694E+00  1.222638025795E+00
  1.237309682104E+00  1.252157398289E+00  1.267183287069E+00  1.282389486514E+00
  1.297778160352E+00  1.313351498276E+00  1.329111716255E+00  1.345061056850E+00
  1.361201789533E+00  1.377536211007E+00  1.394066645539E+00  1.410795445286E+00
  1.427724990629E+00  1.444857690517E+00  1.462195982803E+00  1.479742334596E+00
  1.497499242612E+00  1.515469233523E+00  1.533654864325E+00  1.552058722697E+00
  1.570683427369E+00  1.589531628498E+00  1.608606008040E+00  1.627909280136E+00
  1.647444191498E+00  1.667213521796E+00  1.687220084058E+00  1.707466725066E+00
  1.727956325767E+00  1.748691801676E+00  1.769676103296E+00  1.790912216536E+00
  1.812403163134E+00  1.834152001092E+00  1.856161825105E+00  1.878435767006E+00
  1.900976996210E+00  1.923788720165E+00  1.946874184807E+00  1.970236675025E+00
  1.993879515125E+00  2.017806069306E+00  2.042019742138E+00  2.066523979044E+00
  2.091322266792E+00  2.116418133994E+00  2.141815151602E+00  2.167516933421E+00
  2.193527136622E+00  2.219849462261E+00  2.246487655808E+00  2.273445507678E+00
  2.300726853770E+00  2.328335576016E+00  2.356275602928E+00  2.384550910163E+00
  2.413165521085E+00  2.442123507338E+00  2.471428989426E+00  2.501086137299E+00
  2.531099170947E+00  2.561472360998E+00  2.592210029330E+00  2.623316549682E+00
  2.654796348278E+00  2.686653904457E+00  2.718893751311E+00  2.751520476327E+00
  2.784538722043E+00  2.817953186707E+00  2.851768624948E+00  2.885989848447E+00
  2.920621726628E+00  2.955669187348E+00  2.991137217596E+00  3.027030864207E+00
  3.063355234578E+00  3.100115497393E+00  3.137316883361E+00  3.174964685962E+00
  3.213064262193E+00  3.251621033339E+00  3.290640485740E+00  3.330128171568E+00
  3.370089709627E+00  3.410530786143E+00  3.451457155576E+00  3.492874641443E+00
  3.534789137141E+00  3.577206606786E+00  3.620133086068E+00  3.663574683101E+00
  3.707537579298E+00  3.752028030249E+00  3.797052366612E+00  3.842616995012E+00
  3.888728398952E+00  3.935393139739E+00  3.982617857416E+00  4.030409271705E+00
  4.078774182966E+00  4.127719473161E+00  4.177252106839E+00  4.227379132121E+00
  4.278107681707E+00  4.329444973887E+00  4.381398313574E+00  4.433975093337E+00
  4.487182794457E+00  4.541028987990E+00  4.595521335846E+00  4.650667591876E+00
  4.706475602979E+00  4.762953310215E+00  4.820108749937E+00  4.877950054936E+00
  4.936485455596E+00  4.995723281063E+00  5.055671960436E+00  5.116340023961E+00
  5.177736104248E+00  5.239868937499E+00  5.302747364749E+00  5.366380333126E+00
  5.430776897124E+00  5.495946219889E+00  5.561897574528E+00  5.628640345422E+00
  5.696184029567E+00  5.764538237922E+00  5.833712696777E+00  5.903717249139E+00
  5.974561856128E+00  6.046256598402E+00  6.118811677583E+00  6.192237417714E+00
  6.266544266726E+00  6.341742797927E+00  6.417843711502E+00  6.494857836040E+00
  6.572796130072E+00  6.651669683633E+00  6.731489719837E+00  6.812267596475E+00
  6.894014807633E+00  6.976742985324E+00  7.060463901148E+00  7.145189467962E+00
  7.230931741577E+00  7.317702922476E+00  7.405515357546E+00  7.494381541837E+00
  7.584314120339E+00  7.675325889783E+00  7.767429800460E+00  7.860638958066E+00
  7.954966625562E+00  8.050426225069E+00  8.147031339770E+00  8.244795715847E+00
  8.343733264437E+00  8.443858063611E+00  8.545184360374E+00  8.647726572698E+00
  8.751499291571E+00  8.856517283070E+00  8.962795490467E+00  9.070349036352E+00
  9.179193224788E+00  9.289343543486E+00  9.400815666008E+00  9.513625454000E+00
  9.627788959448E+00  9.743322426961E+00  9.860242296085E+00  9.978565203638E+00
  1.009830798608E+01  1.021948768191E+01  1.034212153410E+01  1.046622699251E+01
  1.059182171642E+01  1.071892357701E+01  1.084755065994E+01  1.097772126786E+01
  1.110945392307E+01  1.124276737015E+01  1.137768057859E+01  1.151421274553E+01
  1.165238329848E+01  1.179221189806E+01  1.193371844084E+01  1.207692306213E+01
  1.222184613887E+01  1.236850829254E+01  1.251693039205E+01  1.266713355675E+01
  1.281913915944E+01  1.297296882935E+01  1.312864445530E+01  1.328618818877E+01
  1.344562244703E+01  1.360696991639E+01  1.377025355539E+01  1.393549659806E+01
  1.410272255723E+01  1.427195522792E+01  1.444321869065E+01  1.461653731494E+01
  1.479193576272E+01  1.496943899187E+01  1.514907225978E+01  1.533086112689E+01
  1.551483146042E+01  1.570100943794E+01  1.588942155120E+01  1.608009460981E+01
  1.627305574513E+01  1.646833241407E+01  1.666595240304E+01  1.686594383188E+01
  1.706833515786E+01  1.727315517975E+01  1.748043304191E+01  1.769019823841E+01
  1.790248061727E+01  1.811731038468E+01  1.833471810930E+01  1.855473472661E+01
  1.877739154333E+01  1.900272024185E+01  1.923075288475E+01  1.946152191937E+01
  1.969506018240E+01  1.993140090459E+01  2.017057771544E+01  2.041262464803E+01
  2.065757614381E+01  2.090546705753E+01  2.115633266222E+01  2.141020865417E+01
  2.166713115802E+01  2.192713673191E+01  2.219026237270E+01  2.245654552117E+01
  2.272602406742E+01  2.299873635623E+01  2.327472119251E+01  2.355401784682E+01
  2.383666606098E+01  2.412270605371E+01  2.441217852636E+01  2.470512466867E+01
  2.500158616470E+01  2.530160519867E+01  2.560522446106E+01  2.591248715459E+01
  2.622343700044E+01  2.653811824445E+01  2.685657566338E+01  2.717885457134E+01
  2.750500082620E+01  2.783506083611E+01  2.816908156615E+01  2.850711054494E+01
  2.884919587148E+01  2.919538622194E+01  2.954573085660E+01  2.990027962688E+01
  3.025908298240E+01  3.062219197819E+01  3.098965828193E+01  3.136153418131E+01
  3.173787259149E+01  3.211872706259E+01  3.250415178734E+01  3.289420160879E+01
  3.328893202809E+01  3.368839921243E+01  3.409266000298E+01  3.450177192301E+01
  3.491579318609E+01  3.533478270432E+01  3.575880009677E+01  3.618790569794E+01
  3.662216056631E+01  3.706162649311E+01  3.750636601102E+01  3.795644240316E+01
  3.841191971199E+01  3.887286274854E+01  3.933933710152E+01  3.981140914674E+01
  4.028914605650E+01  4.077261580918E+01  4.126188719889E+01  4.175702984527E+01
  4.225811420342E+01  4.276521157386E+01  4.327839411275E+01  4.379773484210E+01
  4.432330766020E+01
</grid-data>
</grid>
<valence-charge total-charge="10" is-unscreening-charge="yes"
 rescaled-to-z-pseudo="no">
<radfunc>
<data npts="457">
  1.414162418109E-02  1.421673524129E-02  1.444871639255E-02  1.483342497329E-02
  1.536977852035E-02  1.607764232305E-02  1.698411508634E-02  1.802803982780E-02
  1.920939427943E-02  2.059717279589E-02  2.217452648841E-02  2.390474959385E-02
  2.601773787064E-02  2.825017009297E-02  3.091735998154E-02  3.361749103856E-02
  3.677187919412E-02  3.980654904873E-02  4.327005856000E-02  4.722835789334E-02
  5.175874047399E-02  5.585545734233E-02  6.042992704495E-02  6.554357898467E-02
  7.126665203923E-02  7.767957109932E-02  8.487454473300E-02  9.084709893358E-02
  9.736914091151E-02  1.044965988686E-01  1.122916021770E-01  1.208231925280E-01
  1.301681118856E-01  1.404116734409E-01  1.516487216290E-01  1.639846869027E-01
  1.775367402825E-01  1.924350516354E-01  2.031859199117E-01  2.146457070340E-01
  2.268644145140E-01  2.398955887220E-01  2.537965430673E-01  2.686285876763E-01
  2.844572655616E-01  3.013525939667E-01  3.193893092234E-01  3.386471130447E-01
  3.592109177055E-01  3.811710870190E-01  4.046236693947E-01  4.296706185545E-01
  4.564199966818E-01  4.849861538669E-01  5.154898766921E-01  5.480584976561E-01
  5.828259558576E-01  6.199327979464E-01  6.595261067860E-01  7.017593435570E-01
  7.467920871681E-01  7.947896528184E-01  8.459225694000E-01  9.003658931391E-01
  9.582983324876E-01  1.019901156830E+00  1.085356859119E+00  1.119586511758E+00
  1.154847540193E+00  1.191162329483E+00  1.228552980328E+00  1.267041229138E+00
  1.306648361754E+00  1.347395120538E+00  1.389301604526E+00  1.432387162341E+00
  1.476670277599E+00  1.522168446513E+00  1.568898047441E+00  1.616874202138E+00
  1.666110628488E+00  1.716619484520E+00  1.768411203568E+00  1.821494320455E+00
  1.875875288629E+00  1.931558288266E+00  1.988545025383E+00  2.046834522113E+00
  2.106422898362E+00  2.167303145168E+00  2.229464890202E+00  2.292894155958E+00
  2.357573111329E+00  2.423479817396E+00  2.490587968431E+00  2.558866629279E+00
  2.628279970483E+00  2.698787002693E+00  2.770341312126E+00  2.842890799067E+00
  2.916377421601E+00  2.990736947032E+00  3.065898713656E+00  3.141785405808E+00
  3.218312845310E+00  3.295389802708E+00  3.372917831840E+00  3.450791131520E+00
  3.528896438244E+00  3.607112953967E+00  3.685312313097E+00  3.763358592862E+00
  3.841108371219E+00  3.918410836380E+00  3.995107951866E+00  4.071034680795E+00
  4.146019272762E+00  4.219883616296E+00  4.292443659364E+00  4.363509899802E+00
  4.432887946880E+00  4.500379154435E+00  4.565781325144E+00  4.628889484612E+00
  4.689496722937E+00  4.747395100427E+00  4.802376613091E+00  4.854234212493E+00
  4.902762873588E+00  4.947760703173E+00  4.989030080817E+00  5.026378823355E+00
  5.059621363519E+00  5.088579932889E+00  5.113085739184E+00  5.132980127986E+00
  5.148115719281E+00  5.158357509763E+00  5.163583932587E+00  5.163687867274E+00
  5.158577593595E+00  5.148177684555E+00  5.132429834921E+00  5.111293623084E+00
  5.084747205264E+00  5.052787942098E+00  5.015432958455E+00  4.972719637665E+00
  4.924706051339E+00  4.871471325355E+00  4.813115941485E+00  4.749761972431E+00
  4.681553245850E+00  4.608655430252E+00  4.531256032706E+00  4.449564295097E+00
  4.363810972684E+00  4.274247975943E+00  4.181147854651E+00  4.084803102052E+00
  3.985525257097E+00  3.883643784454E+00  3.779503557956E+00  3.673457289812E+00
  3.565855194087E+00  3.457041980379E+00  3.347357125072E+00  3.237132748710E+00
  3.126692471591E+00  3.016350185611E+00  2.906408906975E+00  2.797159696852E+00
  2.688880652067E+00  2.581835968908E+00  2.476269560775E+00  2.372387397439E+00
  2.270362231793E+00  2.170360849433E+00  2.072530369650E+00  1.977002586827E+00
  1.883893682148E+00  1.793304634081E+00  1.705321640973E+00  1.620016595669E+00
  1.537447607380E+00  1.457659564460E+00  1.380684732658E+00  1.306543382725E+00
  1.235244442030E+00  1.166786164844E+00  1.101156816173E+00  1.038335364328E+00
  9.782921776469E-01  9.209897210730E-01  8.663832486116E-01  8.144214878511E-01
  7.650473133172E-01  7.181984051657E-01  6.738078908116E-01  6.318049665369E-01
  5.921154969406E-01  5.546625901673E-01  5.193671471478E-01  4.861483833482E-01
  4.549243217806E-01  4.256122562828E-01  3.981291843255E-01  3.723922088459E-01
  3.483189088464E-01  3.258276787227E-01  3.048380365054E-01  2.852709013992E-01
  2.670488411948E-01  2.500962902913E-01  2.343397392177E-01  2.197078966621E-01
  2.061318251163E-01  1.935450513208E-01  1.818836527490E-01  1.710863214100E-01
  1.610944062797E-01  1.518519357051E-01  1.433056211697E-01  1.354048438766E-01
  1.281016257128E-01  1.213505862940E-01  1.151088879688E-01  1.093361708456E-01
  1.039944800783E-01  9.904818774594E-02  9.446391164428E-02  9.021043311272E-02
  8.625861563887E-02  8.258132542450E-02  7.915335443440E-02  7.595134578888E-02
  7.295372082218E-02  7.014060680833E-02  6.749376429827E-02  6.499651319424E-02
  6.263365703673E-02  6.039140539521E-02  5.825729464273E-02  5.622010769209E-02
  5.426979344750E-02  5.239738678546E-02  5.059492984401E-02  4.885539530323E-02
  4.717261221185E-02  4.554119477904E-02  4.395647442267E-02  4.241443525447E-02
  4.091165309196E-02  3.944523801584E-02  3.801278043814E-02  3.661230060765E-02
  3.524220145128E-02  3.390122463163E-02  3.258840968793E-02  3.130305612031E-02
  3.004468827226E-02  2.881302286483E-02  2.760793903571E-02  2.642945073871E-02
  2.527768136242E-02  2.415284043267E-02  2.305520227044E-02  2.198508648630E-02
  2.094284020354E-02  1.992882191488E-02  1.894338689174E-02  1.798687407953E-02
  1.705959442668E-02  1.616182060820E-02  1.529377811507E-02  1.445563768840E-02
  1.364750908051E-02  1.286943612448E-02  1.212139308847E-02  1.140328228186E-02
  1.071493286860E-02  1.005610082885E-02  9.426469999827E-03  8.825654086610E-03
  8.253199579498E-03  7.708589436122E-03  7.191247421796E-03  6.700542984686E-03
  6.235796543407E-03  5.796285067451E-03  5.381247836480E-03  4.989892272449E-03
  4.621399748266E-03  4.274931287674E-03  3.949633082718E-03  3.644641767078E-03
  3.359089395353E-03  3.092108089656E-03  2.842834325495E-03  2.610412838607E-03
  2.394000143112E-03  2.192767659021E-03  2.005904453694E-03  1.832619607402E-03
  1.672144217649E-03  1.523733060534E-03  1.386665930148E-03  1.260248678939E-03
  1.143813983239E-03  1.036721858769E-03  9.383599510316E-04  8.481436251408E-04
  7.655158788769E-04  6.899471017134E-04  6.209347012321E-04  5.580026168578E-04
  5.007007392133E-04  4.486042517024E-04  4.013129092025E-04  3.584502670502E-04
  3.196628718643E-04  2.846194241993E-04  2.530099216006E-04  2.245447893383E-04
  1.989540049583E-04  1.759862218021E-04  1.554078958115E-04  1.370024192400E-04
  1.205692643336E-04  1.059231395939E-04  9.289316088644E-05  8.132203938636E-05
  7.106528813870E-05  6.199044884373E-05  5.397634033451E-05  4.691233008892E-05
  4.069762999734E-05  3.524061748453E-05  3.045818295472E-05  2.627510439005E-05
  2.262344978322E-05  1.944200792677E-05  1.667574791577E-05  1.427530755037E-05
  1.219651065276E-05  1.039991314402E-05  8.850377561672E-06  7.516675543135E-06
  6.371117655549E-06  5.389209820851E-06  4.549335468410E-06  3.832462447020E-06
  3.221873644191E-06  2.702920193710E-06  2.262796102130E-06  1.890333090507E-06
  1.575814428496E-06  1.310806532742E-06  1.088007108936E-06  9.011086357130E-07
  7.446760171223E-07  6.140372673351E-07  5.051861350531E-07  4.146956243649E-07
  3.396414222491E-07  2.775342993216E-07  2.262606086588E-07  1.840300666169E-07
  1.493300586363E-07  1.208857713337E-07  9.762550910663E-08  7.865060850191E-08
  6.320941631712E-08  5.067484750451E-08  4.052508620331E-08  3.232703749640E-08
  2.572217868939E-08  2.041449702606E-08  1.616023581176E-08  1.275920298596E-08
  1.004742536783E-08  7.890958221463E-09  6.180683596748E-09  4.827952255135E-09
  3.760943054688E-09  2.921630615567E-09  2.263267086496E-09  1.748297052998E-09
  1.346636232336E-09  1.034254744762E-09  7.920145840720E-10  6.047185721589E-10
  4.603347017564E-10  3.493654689983E-10  2.643366824358E-10  1.993844079730E-10
  1.499222602647E-10  1.123742618668E-10  8.396103462047E-11  6.252922804657E-11
  4.641588411932E-11  3.434093697341E-11  2.532229388751E-11  1.860897860749E-11
  1.362867293845E-11  9.946696192701E-12  7.234039125025E-12  5.242540436325E-12
  3.785677661337E-12  2.723755421154E-12  1.952525385501E-12  1.394474573195E-12
  9.921807819499E-13  7.032634367520E-13  4.965611576466E-13  3.492489694213E-13
  2.446724939819E-13  1.707271048531E-13  1.186496702171E-13  8.212142650338E-14
  5.660453325647E-14  3.885342811350E-14  2.655640139135E-14  1.807377755200E-14
  1.224746677942E-14  8.263019148221E-15  5.550136215472E-15  3.711230062463E-15
  2.470348007099E-15  1.636819567039E-15  1.079498340251E-15  7.085939626985E-16
  4.629165559965E-16  3.009629069086E-16  1.947166629707E-16  1.253567519197E-16
  8.030102303540E-17  5.117962598679E-17  3.245259520392E-17  2.047158027959E-17
  1.284623108061E-17  8.018539600301E-18  4.978317646821E-18  3.074041893090E-18
  1.887767328121E-18  1.152842460872E-18  7.000760754283E-19  4.227123000715E-19
  2.537693381784E-19  1.514599747252E-19  8.986499265242E-20  5.300125265832E-20
  3.107087893172E-20  0.000000000000E+00  0.000000000000E+00  0.000000000000E+00
  0.000000000000E+00
</data>
</radfunc>
</valence-charge>
<pseudocore-charge matching-radius="0.929278974869"
 number-of-continuous-derivatives="4">
<annotation model-charge-form="Teter function with specified parameters" />
<radfunc>
<data npts="290">
  3.113737666347E+01  3.113581319220E+01  3.113098875229E+01  3.112300253409E+01
  3.111189817892E+01  3.109729574898E+01  3.107868285248E+01  3.105736631379E+01
  3.103339410256E+01  3.100543328872E+01  3.097390964575E+01  3.093963715571E+01
  3.089820512023E+01  3.085491985609E+01  3.080384051203E+01  3.075280913123E+01
  3.069402267275E+01  3.063827718086E+01  3.057558277514E+01  3.050508942757E+01
  3.042584748233E+01  3.035544674754E+01  3.027817297773E+01  3.019337454960E+01
  3.010034212672E+01  2.999830441354E+01  2.988642378982E+01  2.979551024891E+01
  2.969813986362E+01  2.959387700618E+01  2.948226018619E+01  2.936280107263E+01
  2.923498357582E+01  2.909826301123E+01  2.895206537083E+01  2.879578673191E+01
  2.862879283757E+01  2.845041888862E+01  2.832483856198E+01  2.819367855602E+01
  2.805671951735E+01  2.791373633967E+01  2.776449832493E+01  2.760876938861E+01
  2.744630831386E+01  2.727686905942E+01  2.710020112669E+01  2.691604999144E+01
  2.672415760636E+01  2.652426298051E+01  2.631610284242E+01  2.609941239363E+01
  2.587392615986E+01  2.563937894721E+01  2.539550691091E+01  2.514204874427E+01
  2.487874699565E+01  2.460534952108E+01  2.432161108007E+01  2.402729508191E+01
  2.372217548930E+01  2.340603888561E+01  2.307868671114E+01  2.273993767299E+01
  2.238963033152E+01  2.202762586522E+01  2.165381101346E+01  2.146244705224E+01
  2.126810119473E+01  2.107076788886E+01  2.087044379506E+01  2.066712789760E+01
  2.046082161837E+01  2.025152893261E+01  2.003925648674E+01  1.982401371785E+01
  1.960581297485E+01  1.938466964103E+01  1.916060225775E+01  1.893363264900E+01
  1.870378604662E+01  1.847109121583E+01  1.823558058073E+01  1.799729034940E+01
  1.775626063826E+01  1.751253559521E+01  1.726616352115E+01  1.701719698938E+01
  1.676569296233E+01  1.651171290515E+01  1.625532289552E+01  1.599659372906E+01
  1.573560101975E+01  1.547242529463E+01  1.520715208211E+01  1.493987199304E+01
  1.467068079389E+01  1.439967947120E+01  1.412697428632E+01  1.385267681978E+01
  1.357690400422E+01  1.329977814509E+01  1.302142692802E+01  1.274198341207E+01
  1.246158600775E+01  1.218037843891E+01  1.189850968741E+01  1.161613391971E+01
  1.133341039422E+01  1.105050334862E+01  1.076758186603E+01  1.048481971921E+01
  1.020239519177E+01  9.920490875754E+00  9.639293444517E+00  9.358993400390E+00
  9.079784796369E+00  8.801864931267E+00  8.525434017877E+00  8.250694823770E+00
  7.977852284496E+00  7.707113089090E+00  7.438685237946E+00  7.172777573276E+00
  6.909599282556E+00  6.649359375569E+00  6.392266135841E+00  6.138526547518E+00
  5.888345698942E+00  5.641926164445E+00  5.399467366152E+00  5.161164917821E+00
  4.927209953069E+00  4.697788440591E+00  4.473080489268E+00  4.253259646380E+00
  4.038492192408E+00  3.828936436207E+00  3.624742014612E+00  3.426049200830E+00
  3.232988226199E+00  3.045678620159E+00  2.864228573486E+00  2.688734330032E+00
  2.519279612368E+00  2.355935086832E+00  2.198757873585E+00  2.047791107257E+00
  1.903063553787E+00  1.764589288906E+00  1.632367443618E+00  1.506382021759E+00
  1.386601794430E+00  1.272980275734E+00  1.165455783766E+00  1.063951590274E+00
  9.683761617936E-01  8.786234943245E-01  7.945735428739E-01  7.160927462753E-01
  6.430346467939E-01  5.752406030030E-01  5.125405933646E-01  4.547541068347E-01
  4.016911156763E-01  3.531531244968E-01  3.089342883679E-01  2.688225917332E-01
  2.326010787001E-01  2.000491242548E-01  1.709437349679E-01  1.450608668848E-01
  1.221767475559E-01  1.020691885705E-01  8.451887454440E-02  6.931061429424E-02
  5.623453993314E-02  4.508723985600E-02  3.567281206660E-02  2.780382503875E-02
  2.130217430550E-02  1.599982423198E-02  1.173942594090E-02  8.374804110341E-03
  5.771307328943E-03  3.806018844070E-03  2.367826837977E-03  1.357355770117E-03
  6.867627807328E-04  2.794056050864E-04  6.939083813799E-05  1.013652451698E-06
  2.810214215280E-05  1.132812785415E-04  2.271729569534E-04  3.475497336596E-04
  4.584605479302E-04  5.493469602086E-04  6.141681877939E-04  6.505524745210E-04
  6.589910972899E-04  6.420896143058E-04  6.038888402839E-04  5.492655534489E-04
  4.834201757661E-04  4.114557143277E-04  3.380492131545E-04  2.672139541280E-04
  2.021477802585E-04  1.451603093985E-04  9.766956989910E-05  6.025681654980E-05
  3.276705162695E-05  1.444213426722E-05  4.073335803933E-06  1.607822211326E-07
  1.068378180599E-06  5.164459071532E-06  1.094046800405E-05  1.710227903488E-05
  2.263124398289E-05  2.681447662684E-05  2.924615412678E-05  2.980357138355E-05
  2.860321119790E-05  2.594310354463E-05  2.223819121132E-05  1.795528973870E-05
  1.355356510704E-05  9.435333784959E-06  5.910534336883E-06  3.176572896038E-06
  1.313566378236E-06  2.934574457156E-07  1.988300446881E-10  2.573167930362E-07
  8.587373687826E-07  1.598817485846E-06  2.298035708174E-06  2.821683274368E-06
  3.090032844641E-06  3.079699945763E-06  2.817091339638E-06  2.365807026568E-06
  1.810510122240E-06  1.240029469855E-06  7.322981172458E-07  3.432003120269E-07
  1.005971027994E-07  3.861475104498E-09  0.000000000000E+00  0.000000000000E+00
  0.000000000000E+00  0.000000000000E+00  0.000000000000E+00  0.000000000000E+00
  0.000000000000E+00  0.000000000000E+00  0.000000000000E+00  0.000000000000E+00
  0.000000000000E+00  0.000000000000E+00  0.000000000000E+00  0.000000000000E+00
  0.000000000000E+00  0.000000000000E+00  0.000000000000E+00  0.000000000000E+00
  0.000000000000E+00  0.000000000000E+00  0.000000000000E+00  0.000000000000E+00
  0.000000000000E+00  0.000000000000E+00  0.000000000000E+00  0.000000000000E+00
  0.000000000000E+00  0.000000000000E+00  0.000000000000E+00  0.000000000000E+00
  0.000000000000E+00  0.000000000000E+00  0.000000000000E+00  0.000000000000E+00
  0.000000000000E+00  0.000000000000E+00  0.000000000000E+00  0.000000000000E+00
  0.000000000000E+00  0.000000000000E+00
</data>
</radfunc>
</pseudocore-charge>
<semilocal-potentials set="scalar_relativistic">
<slps n="4" l="s" rc="1.51546923352">
<radfunc>
<data npts="290">
  9.117723612508E+01  9.108772678139E+01  9.081244782510E+01  9.035980959853E+01
  8.973668363784E+01  8.892811989605E+01  8.791496801053E+01  8.677805151393E+01
  8.552839417159E+01  8.410807445359E+01  8.255294799215E+01  8.091526265899E+01
  7.900555561422E+01  7.708791039760E+01  7.492062780474E+01  7.285222029703E+01
  7.058123023282E+01  6.853061173200E+01  6.633543784413E+01  6.399715296260E+01
  6.151956521844E+01  5.944139242283E+01  5.728260168884E+01  5.504882305391E+01
  5.274679711296E+01  5.038433093931E+01  4.797022172424E+01  4.613154214528E+01
  4.427360749708E+01  4.240098012941E+01  4.051837714017E+01  3.863062457260E+01
  3.674260930120E+01  3.485922962095E+01  3.298534560165E+01  3.112573027690E+01
  2.928502270631E+01  2.746768387964E+01  2.627121248246E+01  2.508821357543E+01
  2.391982818580E+01  2.276713907949E+01  2.163116752638E+01  2.051287056712E+01
  1.941313878796E+01  1.833279460311E+01  1.727259103879E+01  1.623321100705E+01
  1.521526705289E+01  1.421930155345E+01  1.324578734464E+01  1.229512874717E+01
  1.136766296187E+01  1.046366180238E+01  9.583333732295E+00  8.726826173395E+00
  7.894228052128E+00  7.085572551922E+00  6.300840040464E+00  5.539961142660E+00
  4.802819932128E+00  4.089257216378E+00  3.399073893474E+00  2.732034360655E+00
  2.087869958166E+00  1.466282434372E+00  8.669474208151E-01  5.755169544855E-01
  2.895179084637E-01  8.903938474766E-03 -2.663722814657E-01 -5.363589512021E-01
 -8.011050368112E-01 -1.060660163238E+00 -1.315074507186E+00 -1.564398690287E+00
 -1.808683672581E+00 -2.047980646313E+00 -2.282340930074E+00 -2.511815863341E+00
 -2.736456701429E+00 -2.956314510951E+00 -3.171440065805E+00 -3.381883743812E+00
 -3.587695424102E+00 -3.788924385334E+00 -3.985619204938E+00 -4.177827659521E+00
 -4.365596626633E+00 -4.548971988119E+00 -4.727998535304E+00 -4.902719876307E+00
 -5.073178345784E+00 -5.239414917472E+00 -5.401469119916E+00 -5.559378955813E+00
 -5.713180825444E+00 -5.862909454676E+00 -6.008597828156E+00 -6.150277128167E+00
 -6.287976679924E+00 -6.421723903793E+00 -6.551544275339E+00 -6.677461293780E+00
 -6.799496459687E+00 -6.917669262725E+00 -7.031997180276E+00 -7.142495687752E+00
 -7.249178281507E+00 -7.352056515218E+00 -7.451140050596E+00 -7.546436723336E+00
 -7.637952625166E+00 -7.725692202803E+00 -7.809658374666E+00 -7.889852666045E+00
 -7.966275363408E+00 -8.038925688406E+00 -8.107801992000E+00 -8.172901969007E+00
 -8.234222893109E+00 -8.291761872208E+00 -8.345516123679E+00 -8.395483268777E+00
 -8.441661645074E+00 -8.484050635411E+00 -8.522651011340E+00 -8.557465288548E+00
 -8.588498091174E+00 -8.615756521323E+00 -8.639250529434E+00 -8.658993280460E+00
 -8.675001510110E+00 -8.687295864680E+00 -8.695901217194E+00 -8.700846951880E+00
 -8.702167208209E+00 -8.699901074977E+00 -8.694092724220E+00 -8.684791474064E+00
 -8.672051769015E+00 -8.655933065660E+00 -8.636499611390E+00 -8.613820103518E+00
 -8.587967216144E+00 -8.559016982441E+00 -8.527048020609E+00 -8.492140592883E+00
 -8.454375488515E+00 -8.413832723986E+00 -8.370590056673E+00 -8.324721312124E+00
 -8.276294530026E+00 -8.225369939982E+00 -8.171997785496E+00 -8.116216023105E+00