Sr    ONCVPSP-3.3.0  r_core=   1.51547   1.31335   1.51547
38.0000     10.0000      180506    zatom,zion,pspd
8      11   2     4   600     0    pspcod,pspxc,lmax,lloc,mmax,r2well
5.99000000  6.00000000  0.00000000    rchrg fchrg qchrg
2     3     3     0    nproj
3     1           extension_switch
4     3     0    nprojso
0                         8.9421232162502D-01  9.8680974941423D+00
1  0.0000000000000D+00 -7.5184014569629D-10  1.4864603992137D-10
2  1.0000000000000D-02 -1.4461993868555D-02  4.0570569966227D-02
3  2.0000000000000D-02 -2.8970152490149D-02  8.1133038942970D-02
4  3.0000000000000D-02 -4.3569486390813D-02  1.2167900443366D-01
5  4.0000000000000D-02 -5.8302712945131D-02  1.6219946438447D-01
6  5.0000000000000D-02 -7.3209147862916D-02  2.0268452600964D-01
7  6.0000000000000D-02 -8.8323641810018D-02  2.4312312483488D-01
8  7.0000000000000D-02 -1.0367557631390D-01  2.8350275718835D-01
9  8.0000000000000D-02 -1.1928793235277D-01  3.2380922921996D-01
10  9.0000000000000D-02 -1.3517644410494D-01  3.6402642534731D-01
11  1.0000000000000D-01 -1.5134884925416D-01  4.0413609881206D-01
12  1.1000000000000D-01 -1.6780424602124D-01  4.4411768678688D-01
13  1.2000000000000D-01 -1.8453256573634D-01  4.8394815220302D-01
14  1.3000000000000D-01 -2.0151416829818D-01  5.2360185417484D-01
15  1.4000000000000D-01 -2.1871956630428D-01  5.6305044858434D-01
16  1.5000000000000D-01 -2.3610928199878D-01  6.0226282005864D-01
17  1.6000000000000D-01 -2.5363383949436D-01  6.4120504623144D-01
18  1.7000000000000D-01 -2.7123389300067D-01  6.7984039482809D-01
19  1.8000000000000D-01 -2.8884049005858D-01  7.1812935375902D-01
20  1.9000000000000D-01 -3.0637546705634D-01  7.5602969405018D-01
21  2.0000000000000D-01 -3.2375197261513D-01  7.9349656508729D-01
22  2.1000000000000D-01 -3.4087511279731D-01  8.3048262130639D-01
23  2.2000000000000D-01 -3.5764271053194D-01  8.6693817913062D-01
24  2.3000000000000D-01 -3.7394617019082D-01  9.0281140263629D-01
25  2.4000000000000D-01 -3.8967143690012D-01  9.3804851613335D-01
26  2.5000000000000D-01 -4.0470003895863D-01  9.7259404157040D-01
27  2.6000000000000D-01 -4.1891020066662D-01  1.0063910584243D+00
28  2.7000000000000D-01 -4.3217801196584D-01  1.0393814835143D+00
29  2.8000000000000D-01 -4.4437864056128D-01  1.0715063679890D+00
30  2.9000000000000D-01 -4.5538757165057D-01  1.1027062085786D+00
31  3.0000000000000D-01 -4.6508186003330D-01  1.1329212700825D+00
32  3.1000000000000D-01 -4.7334137921703D-01  1.1620919159738D+00
33  3.2000000000000D-01 -4.8005005217957D-01  1.1901589439542D+00
34  3.3000000000000D-01 -4.8509704869067D-01  1.2170639232807D+00
35  3.4000000000000D-01 -4.8837793453652D-01  1.2427495307056D+00
36  3.5000000000000D-01 -4.8979575862255D-01  1.2671598819374D+00
37  3.6000000000000D-01 -4.8926206474639D-01  1.2902408556208D+00
38  3.7000000000000D-01 -4.8669781582391D-01  1.3119404069678D+00
39  3.8000000000000D-01 -4.8203421950365D-01  1.3322088683296D+00
40  3.9000000000000D-01 -4.7521344540384D-01  1.3509992341954D+00
41  4.0000000000000D-01 -4.6618922563708D-01  1.3682674283172D+00
42  4.1000000000000D-01 -4.5492733182905D-01  1.3839725509068D+00
43  4.2000000000000D-01 -4.4140592347102D-01  1.3980771041115D+00
44  4.3000000000000D-01 -4.2561576415046D-01  1.4105471942579D+00
45  4.4000000000000D-01 -4.0756030395548D-01  1.4213527096444D+00
46  4.5000000000000D-01 -3.8725562812453D-01  1.4304674729699D+00
47  4.6000000000000D-01 -3.6473027379096D-01  1.4378693677913D+00
48  4.7000000000000D-01 -3.4002491842302D-01  1.4435404387157D+00
49  4.8000000000000D-01 -3.1319194526825D-01  1.4474669653398D+00
50  4.9000000000000D-01 -2.8429489274435D-01  1.4496395102474D+00
51  5.0000000000000D-01 -2.5340779626101D-01  1.4500529416685D+00
52  5.1000000000000D-01 -2.2061443238282D-01  1.4487064316768D+00
53  5.2000000000000D-01 -1.8600747653500D-01  1.4456034310576D+00
54  5.3000000000000D-01 -1.4968758658871D-01  1.4407516222164D+00
55  5.4000000000000D-01 -1.1176242563009D-01  1.4341628517036D+00
56  5.5000000000000D-01 -7.2345637996511D-02  1.4258530441171D+00
57  5.6000000000000D-01 -3.1555793246867D-02  1.4158420992942D+00
58  5.7000000000000D-01  1.0484686891311D-02  1.4041537748263D+00
59  5.8000000000000D-01  5.3650603392971D-02  1.3908155560166D+00
60  5.9000000000000D-01  9.7815041475987D-02  1.3758585154530D+00
61  6.0000000000000D-01  1.4285040393436D-01  1.3593171643875D+00
62  6.1000000000000D-01  1.8862940188214D-01  1.3412292980963D+00
63  6.2000000000000D-01  2.3502598922305D-01  1.3216358373427D+00
64  6.3000000000000D-01  2.8191622807172D-01  1.3005806679807D+00
65  6.4000000000000D-01  3.2917907344800D-01  1.2781104806211D+00
66  6.5000000000000D-01  3.7669706684110D-01  1.2542746121331D+00
67  6.6000000000000D-01  4.2435692968336D-01  1.2291248905832D+00
68  6.7000000000000D-01  4.7205004935392D-01  1.2027154850105D+00
69  6.8000000000000D-01  5.1967285203287D-01  1.1751027612202D+00
70  6.9000000000000D-01  5.6712705853691D-01  1.1463451445360D+00
71  7.0000000000000D-01  6.1431982113936D-01  1.1165029901999D+00
72  7.1000000000000D-01  6.6116374130572D-01  1.0856384618455D+00
73  7.2000000000000D-01  7.0757677021607D-01  1.0538154182008D+00
74  7.3000000000000D-01  7.5348199589146D-01  1.0210993079082D+00
75  7.4000000000000D-01  7.9880732263892D-01  9.8755707207993D-01
76  7.5000000000000D-01  8.4348505036945D-01  9.5325705394926D-01
77  7.6000000000000D-01  8.8745136309186D-01  9.1826891472992D-01
78  7.7000000000000D-01  9.3064573751434D-01  8.8266355456444D-01
79  7.8000000000000D-01  9.7301028416956D-01  8.4651303723177D-01
80  7.9000000000000D-01  1.0144890348013D+00  8.0989051709736D-01
81  8.0000000000000D-01  1.0550271908756D+00  7.7287016663047D-01
82  8.1000000000000D-01  1.0945703490020D+00  7.3552710268542D-01
83  8.2000000000000D-01  1.1330637197412D+00  6.9793730964946D-01
84  8.3000000000000D-01  1.1704513567342D+00  6.6017755750174D-01
85  8.4000000000000D-01  1.2066754132861D+00  6.2232531280794D-01
86  8.5000000000000D-01  1.2416754434858D+00  5.8445864069349D-01
87  8.6000000000000D-01  1.2753877646238D+00  5.4665609589744D-01
88  8.7000000000000D-01  1.3077448970910D+00  5.0899660110741D-01
89  8.8000000000000D-01  1.3386750970987D+00  4.7155931091378D-01
90  8.9000000000000D-01  1.3681019964694D+00  4.3442345989793D-01
91  9.0000000000000D-01  1.3959443624112D+00  3.9766819358199D-01
92  9.1000000000000D-01  1.4221159886272D+00  3.6137238121482D-01
93  9.2000000000000D-01  1.4465257273337D+00  3.2561440964806D-01
94  9.3000000000000D-01  1.4690776698013D+00  2.9047195786275D-01
95  9.4000000000000D-01  1.4896714809019D+00  2.5602175203867D-01
96  9.5000000000000D-01  1.5082028908697D+00  2.2233930141085D-01
97  9.6000000000000D-01  1.5245643451065D+00  1.8949861552453D-01
98  9.7000000000000D-01  1.5386458104203D+00  1.5757190387440D-01
99  9.8000000000000D-01  1.5503357335366D+00  1.2662925930318D-01
100  9.9000000000000D-01  1.5595221452352D+00  9.6738326911994D-02
101  1.0000000000000D+00  1.5660939009497D+00  6.7963960614116D-02
102  1.0100000000000D+00  1.5699420462193D+00  4.0367869829151D-02
103  1.0200000000000D+00  1.5709612930323D+00  1.4008259163288D-02
104  1.0300000000000D+00  1.5690515908249D+00 -1.1060535747048D-02
105  1.0400000000000D+00  1.5641197739421D+00 -3.4788412768448D-02
106  1.0500000000000D+00  1.5560812653025D+00 -5.7129864429467D-02
107  1.0600000000000D+00  1.5448618144667D+00 -7.8044331744112D-02
108  1.0700000000000D+00  1.5303992468271D+00 -9.7496546542700D-02
109  1.0800000000000D+00  1.5126451994635D+00 -1.1545685801137D-01
110  1.0900000000000D+00  1.4915668183962D+00 -1.3190153905121D-01
111  1.1000000000000D+00  1.4671483912835D+00 -1.4681306801351D-01
112  1.1100000000000D+00  1.4393928894338D+00 -1.6018038138566D-01
113  1.1200000000000D+00  1.4083233930695D+00 -1.7199909306765D-01
114  1.1300000000000D+00  1.3739843741869D+00 -1.8227167599637D-01
115  1.1400000000000D+00  1.3364428119668D+00 -1.9100760202659D-01
116  1.1500000000000D+00  1.2957891169076D+00 -1.9822343623556D-01
117  1.1600000000000D+00  1.2521378412459D+00 -2.0394288209658D-01
118  1.1700000000000D+00  1.2056281547631D+00 -2.0819677426760D-01
119  1.1800000000000D+00  1.1564240670007D+00 -2.1102301610988D-01
120  1.1900000000000D+00  1.1047143793951D+00 -2.1246645951487D-01
121  1.2000000000000D+00  1.0507123535953D+00 -2.1257872512012D-01
122  1.2100000000000D+00  9.9465508362422D-01 -2.1141796125350D-01
123  1.2200000000000D+00  9.3680256403492D-01 -2.0904854075584D-01
124  1.2300000000000D+00  8.7743644871090D-01 -2.0554069527296D-01
125  1.2400000000000D+00  8.1685849737474D-01 -2.0097008704021D-01
126  1.2500000000000D+00  7.5538871070998D-01 -1.9541731886302D-01
127  1.2600000000000D+00  6.9336315895031D-01 -1.8896738368699D-01
128  1.2700000000000D+00  6.3113150737950D-01 -1.8170905504527D-01
129  1.2800000000000D+00  5.6905426839526D-01 -1.7373422327747D-01
130  1.2900000000000D+00  5.0749970743590D-01 -1.6513716862510D-01
131  1.3000000000000D+00  4.4684083668735D-01 -1.5601383289771D-01
132  1.3100000000000D+00  3.8745122393049D-01 -1.4646091400291D-01
133  1.3200000000000D+00  3.2970167269734D-01 -1.3657507144791D-01
134  1.3300000000000D+00  2.7396085200483D-01 -1.2645262912258D-01
135  1.3400000000000D+00  2.2059590341964D-01 -1.1618936020103D-01
136  1.3500000000000D+00  1.6997331126993D-01 -1.0588035972312D-01
137  1.3600000000000D+00  1.2245512461452D-01 -9.5619334791543D-02
138  1.3700000000000D+00  7.8395855827206D-02 -8.5497988721313D-02
139  1.3800000000000D+00  3.8139554564551D-02 -7.5605423573120D-02
140  1.3900000000000D+00  2.0167499620776D-03 -6.6027534058708D-02
141  1.4000000000000D+00 -2.9658544649058D-02 -5.6846415065243D-02
142  1.4100000000000D+00 -5.6591757697167D-02 -4.8139785649172D-02
143  1.4200000000000D+00 -7.8510579212979D-02 -3.9980435622133D-02
144  1.4300000000000D+00 -9.5167648905856D-02 -3.2435699255230D-02
145  1.4400000000000D+00 -1.0634307974821D-01 -2.5566961771641D-02
146  1.4500000000000D+00 -1.1184679515051D-01 -1.9429202439833D-02
147  1.4600000000000D+00 -1.1152065054918D-01 -1.4070579326677D-02
148  1.4700000000000D+00 -1.0508330620421D-01 -9.5348344694834D-03
149  1.4800000000000D+00 -9.2967627211742D-02 -5.8464337571181D-03
150  1.4900000000000D+00 -7.5798289636617D-02 -3.0239416982488D-03
151  1.5000000000000D+00 -4.8134462106664D-02 -1.1499181842722D-03
152  1.5100000000000D+00 -1.3950885384582D-02 -1.8893142171859D-04
153  1.5200000000000D+00  4.3872595497693D-03  9.8812866699452D-05
154  1.5300000000000D+00  2.4756462493799D-03  4.1390230520077D-05
155  1.5400000000000D+00 -1.1672691270181D-03 -2.6931386772695D-05
156  1.5500000000000D+00 -3.8271930485456D-04 -8.4553811060725D-06
157  1.5600000000000D+00  1.5730896058909D-04  5.1776457733630D-06
158  1.5700000000000D+00  1.7214711071968D-05  5.6109872597126D-07
159  1.5800000000000D+00  1.7468800263170D-07 -9.5689054268258D-08
160  1.5900000000000D+00  0.0000000000000D+00  0.0000000000000D+00
161  1.6000000000000D+00  0.0000000000000D+00  0.0000000000000D+00
162  1.6100000000000D+00  0.0000000000000D+00  0.0000000000000D+00
163  1.6200000000000D+00  0.0000000000000D+00  0.0000000000000D+00
164  1.6300000000000D+00  0.0000000000000D+00  0.0000000000000D+00
165  1.6400000000000D+00  0.0000000000000D+00  0.0000000000000D+00
166  1.6500000000000D+00  0.0000000000000D+00  0.0000000000000D+00
167  1.6600000000000D+00  0.0000000000000D+00  0.0000000000000D+00
168  1.6700000000000D+00  0.0000000000000D+00  0.0000000000000D+00
169  1.6800000000000D+00  0.0000000000000D+00  0.0000000000000D+00
170  1.6900000000000D+00  0.0000000000000D+00  0.0000000000000D+00
171  1.7000000000000D+00  0.0000000000000D+00  0.0000000000000D+00
172  1.7100000000000D+00  0.0000000000000D+00  0.0000000000000D+00
173  1.7200000000000D+00  0.0000000000000D+00  0.0000000000000D+00
174  1.7300000000000D+00  0.0000000000000D+00  0.0000000000000D+00
175  1.7400000000000D+00  0.0000000000000D+00  0.0000000000000D+00
176  1.7500000000000D+00  0.0000000000000D+00  0.0000000000000D+00
177  1.7600000000000D+00  0.0000000000000D+00  0.0000000000000D+00
178  1.7700000000000D+00  0.0000000000000D+00  0.0000000000000D+00
179  1.7800000000000D+00  0.0000000000000D+00  0.0000000000000D+00
180  1.7900000000000D+00  0.0000000000000D+00  0.0000000000000D+00
181  1.8000000000000D+00  0.0000000000000D+00  0.0000000000000D+00
182  1.8100000000000D+00  0.0000000000000D+00  0.0000000000000D+00
183  1.8200000000000D+00  0.0000000000000D+00  0.0000000000000D+00
184  1.8300000000000D+00  0.0000000000000D+00  0.0000000000000D+00
185  1.8400000000000D+00  0.0000000000000D+00  0.0000000000000D+00
186  1.8500000000000D+00  0.0000000000000D+00  0.0000000000000D+00
187  1.8600000000000D+00  0.0000000000000D+00  0.0000000000000D+00
188  1.8700000000000D+00  0.0000000000000D+00  0.0000000000000D+00
189  1.8800000000000D+00  0.0000000000000D+00  0.0000000000000D+00
190  1.8900000000000D+00  0.0000000000000D+00  0.0000000000000D+00
191  1.9000000000000D+00  0.0000000000000D+00  0.0000000000000D+00
192  1.9100000000000D+00  0.0000000000000D+00  0.0000000000000D+00
193  1.9200000000000D+00  0.0000000000000D+00  0.0000000000000D+00
194  1.9300000000000D+00  0.0000000000000D+00  0.0000000000000D+00
195  1.9400000000000D+00  0.0000000000000D+00  0.0000000000000D+00
196  1.9500000000000D+00  0.0000000000000D+00  0.0000000000000D+00
197  1.9600000000000D+00  0.0000000000000D+00  0.0000000000000D+00
198  1.9700000000000D+00  0.0000000000000D+00  0.0000000000000D+00
199  1.9800000000000D+00  0.0000000000000D+00  0.0000000000000D+00
200  1.9900000000000D+00  0.0000000000000D+00  0.0000000000000D+00
201  2.0000000000000D+00  0.0000000000000D+00  0.0000000000000D+00
202  2.0100000000000D+00  0.0000000000000D+00  0.0000000000000D+00
203  2.0200000000000D+00  0.0000000000000D+00  0.0000000000000D+00
204  2.0300000000000D+00  0.0000000000000D+00  0.0000000000000D+00
205  2.0400000000000D+00  0.0000000000000D+00  0.0000000000000D+00
206  2.0500000000000D+00  0.0000000000000D+00  0.0000000000000D+00
207  2.0600000000000D+00  0.0000000000000D+00  0.0000000000000D+00
208  2.0700000000000D+00  0.0000000000000D+00  0.0000000000000D+00
209  2.0800000000000D+00  0.0000000000000D+00  0.0000000000000D+00
210  2.0900000000000D+00  0.0000000000000D+00  0.0000000000000D+00
211  2.1000000000000D+00  0.0000000000000D+00  0.0000000000000D+00
212  2.1100000000000D+00  0.0000000000000D+00  0.0000000000000D+00
213  2.1200000000000D+00  0.0000000000000D+00  0.0000000000000D+00
214  2.1300000000000D+00  0.0000000000000D+00  0.0000000000000D+00
215  2.1400000000000D+00  0.0000000000000D+00  0.0000000000000D+00
216  2.1500000000000D+00  0.0000000000000D+00  0.0000000000000D+00
217  2.1600000000000D+00  0.0000000000000D+00  0.0000000000000D+00
218  2.1700000000000D+00  0.0000000000000D+00  0.0000000000000D+00
219  2.1800000000000D+00  0.0000000000000D+00  0.0000000000000D+00
220  2.1900000000000D+00  0.0000000000000D+00  0.0000000000000D+00
221  2.2000000000000D+00  0.0000000000000D+00  0.0000000000000D+00
222  2.2100000000000D+00  0.0000000000000D+00  0.0000000000000D+00
223  2.2200000000000D+00  0.0000000000000D+00  0.0000000000000D+00
224  2.2300000000000D+00  0.0000000000000D+00  0.0000000000000D+00
225  2.2400000000000D+00  0.0000000000000D+00  0.0000000000000D+00
226  2.2500000000000D+00  0.0000000000000D+00  0.0000000000000D+00
227  2.2600000000000D+00  0.0000000000000D+00  0.0000000000000D+00
228  2.2700000000000D+00  0.0000000000000D+00  0.0000000000000D+00
229  2.2800000000000D+00  0.0000000000000D+00  0.0000000000000D+00
230  2.2900000000000D+00  0.0000000000000D+00  0.0000000000000D+00
231  2.3000000000000D+00  0.0000000000000D+00  0.0000000000000D+00
232  2.3100000000000D+00  0.0000000000000D+00  0.0000000000000D+00
233  2.3200000000000D+00  0.0000000000000D+00  0.0000000000000D+00
234  2.3300000000000D+00  0.0000000000000D+00  0.0000000000000D+00
235  2.3400000000000D+00  0.0000000000000D+00  0.0000000000000D+00
236  2.3500000000000D+00  0.0000000000000D+00  0.0000000000000D+00
237  2.3600000000000D+00  0.0000000000000D+00  0.0000000000000D+00
238  2.3700000000000D+00  0.0000000000000D+00  0.0000000000000D+00
239  2.3800000000000D+00  0.0000000000000D+00  0.0000000000000D+00
240  2.3900000000000D+00  0.0000000000000D+00  0.0000000000000D+00
241  2.4000000000000D+00  0.0000000000000D+00  0.0000000000000D+00
242  2.4100000000000D+00  0.0000000000000D+00  0.0000000000000D+00
243  2.4200000000000D+00  0.0000000000000D+00  0.0000000000000D+00
244  2.4300000000000D+00  0.0000000000000D+00  0.0000000000000D+00
245  2.4400000000000D+00  0.0000000000000D+00  0.0000000000000D+00
246  2.4500000000000D+00  0.0000000000000D+00  0.0000000000000D+00
247  2.4600000000000D+00  0.0000000000000D+00  0.0000000000000D+00
248  2.4700000000000D+00  0.0000000000000D+00  0.0000000000000D+00
249  2.4800000000000D+00  0.0000000000000D+00  0.0000000000000D+00
250  2.4900000000000D+00  0.0000000000000D+00  0.0000000000000D+00
251  2.5000000000000D+00  0.0000000000000D+00  0.0000000000000D+00
252  2.5100000000000D+00  0.0000000000000D+00  0.0000000000000D+00
253  2.5200000000000D+00  0.0000000000000D+00  0.0000000000000D+00
254  2.5300000000000D+00  0.0000000000000D+00  0.0000000000000D+00
255  2.5400000000000D+00  0.0000000000000D+00  0.0000000000000D+00
256  2.5500000000000D+00  0.0000000000000D+00  0.0000000000000D+00
257  2.5600000000000D+00  0.0000000000000D+00  0.0000000000000D+00
258  2.5700000000000D+00  0.0000000000000D+00  0.0000000000000D+00
259  2.5800000000000D+00  0.0000000000000D+00  0.0000000000000D+00
260  2.5900000000000D+00  0.0000000000000D+00  0.0000000000000D+00
261  2.6000000000000D+00  0.0000000000000D+00  0.0000000000000D+00
262  2.6100000000000D+00  0.0000000000000D+00  0.0000000000000D+00
263  2.6200000000000D+00  0.0000000000000D+00  0.0000000000000D+00
264  2.6300000000000D+00  0.0000000000000D+00  0.0000000000000D+00
265  2.6400000000000D+00  0.0000000000000D+00  0.0000000000000D+00
266  2.6500000000000D+00  0.0000000000000D+00  0.0000000000000D+00
267  2.6600000000000D+00  0.0000000000000D+00  0.0000000000000D+00
268  2.6700000000000D+00  0.0000000000000D+00  0.0000000000000D+00
269  2.6800000000000D+00  0.0000000000000D+00  0.0000000000000D+00
270  2.6900000000000D+00  0.0000000000000D+00  0.0000000000000D+00
271  2.7000000000000D+00  0.0000000000000D+00  0.0000000000000D+00
272  2.7100000000000D+00  0.0000000000000D+00  0.0000000000000D+00
273  2.7200000000000D+00  0.0000000000000D+00  0.0000000000000D+00
274  2.7300000000000D+00  0.0000000000000D+00  0.0000000000000D+00
275  2.7400000000000D+00  0.0000000000000D+00  0.0000000000000D+00
276  2.7500000000000D+00  0.0000000000000D+00  0.0000000000000D+00
277  2.7600000000000D+00  0.0000000000000D+00  0.0000000000000D+00
278  2.7700000000000D+00  0.0000000000000D+00  0.0000000000000D+00
279  2.7800000000000D+00  0.0000000000000D+00  0.0000000000000D+00
280  2.7900000000000D+00  0.0000000000000D+00  0.0000000000000D+00
281  2.8000000000000D+00  0.0000000000000D+00  0.0000000000000D+00
282  2.8100000000000D+00  0.0000000000000D+00  0.0000000000000D+00
283  2.8200000000000D+00  0.0000000000000D+00  0.0000000000000D+00
284  2.8300000000000D+00  0.0000000000000D+00  0.0000000000000D+00
285  2.8400000000000D+00  0.0000000000000D+00  0.0000000000000D+00
286  2.8500000000000D+00  0.0000000000000D+00  0.0000000000000D+00
287  2.8600000000000D+00  0.0000000000000D+00  0.0000000000000D+00
288  2.8700000000000D+00  0.0000000000000D+00  0.0000000000000D+00
289  2.8800000000000D+00  0.0000000000000D+00  0.0000000000000D+00
290  2.8900000000000D+00  0.0000000000000D+00  0.0000000000000D+00
291  2.9000000000000D+00  0.0000000000000D+00  0.0000000000000D+00
292  2.9100000000000D+00  0.0000000000000D+00  0.0000000000000D+00
293  2.9200000000000D+00  0.0000000000000D+00  0.0000000000000D+00
294  2.9300000000000D+00  0.0000000000000D+00  0.0000000000000D+00
295  2.9400000000000D+00  0.0000000000000D+00  0.0000000000000D+00
296  2.9500000000000D+00  0.0000000000000D+00  0.0000000000000D+00
297  2.9600000000000D+00  0.0000000000000D+00  0.0000000000000D+00
298  2.9700000000000D+00  0.0000000000000D+00  0.0000000000000D+00
299  2.9800000000000D+00  0.0000000000000D+00  0.0000000000000D+00
300  2.9900000000000D+00  0.0000000000000D+00  0.0000000000000D+00
301  3.0000000000000D+00  0.0000000000000D+00  0.0000000000000D+00
302  3.0100000000000D+00  0.0000000000000D+00  0.0000000000000D+00
303  3.0200000000000D+00  0.0000000000000D+00  0.0000000000000D+00
304  3.0300000000000D+00  0.0000000000000D+00  0.0000000000000D+00
305  3.0400000000000D+00  0.0000000000000D+00  0.0000000000000D+00
306  3.0500000000000D+00  0.0000000000000D+00  0.0000000000000D+00
307  3.0600000000000D+00  0.0000000000000D+00  0.0000000000000D+00
308  3.0700000000000D+00  0.0000000000000D+00  0.0000000000000D+00
309  3.0800000000000D+00  0.0000000000000D+00  0.0000000000000D+00
310  3.0900000000000D+00  0.0000000000000D+00  0.0000000000000D+00
311  3.1000000000000D+00  0.0000000000000D+00  0.0000000000000D+00
312  3.1100000000000D+00  0.0000000000000D+00  0.0000000000000D+00
313  3.1200000000000D+00  0.0000000000000D+00  0.0000000000000D+00
314  3.1300000000000D+00  0.0000000000000D+00  0.0000000000000D+00
315  3.1400000000000D+00  0.0000000000000D+00  0.0000000000000D+00
316  3.1500000000000D+00  0.0000000000000D+00  0.0000000000000D+00
317  3.1600000000000D+00  0.0000000000000D+00  0.0000000000000D+00
318  3.1700000000000D+00  0.0000000000000D+00  0.0000000000000D+00
319  3.1800000000000D+00  0.0000000000000D+00  0.0000000000000D+00
320  3.1900000000000D+00  0.0000000000000D+00  0.0000000000000D+00
321  3.2000000000000D+00  0.0000000000000D+00  0.0000000000000D+00
322  3.2100000000000D+00  0.0000000000000D+00  0.0000000000000D+00
323  3.2200000000000D+00  0.0000000000000D+00  0.0000000000000D+00
324  3.2300000000000D+00  0.0000000000000D+00  0.0000000000000D+00
325  3.2400000000000D+00  0.0000000000000D+00  0.0000000000000D+00
326  3.2500000000000D+00  0.0000000000000D+00  0.0000000000000D+00
327  3.2600000000000D+00  0.0000000000000D+00  0.0000000000000D+00
328  3.2700000000000D+00  0.0000000000000D+00  0.0000000000000D+00
329  3.2800000000000D+00  0.0000000000000D+00  0.0000000000000D+00
330  3.2900000000000D+00  0.0000000000000D+00  0.0000000000000D+00
331  3.3000000000000D+00  0.0000000000000D+00  0.0000000000000D+00
332  3.3100000000000D+00  0.0000000000000D+00  0.0000000000000D+00
333  3.3200000000000D+00  0.0000000000000D+00  0.0000000000000D+00
334  3.3300000000000D+00  0.0000000000000D+00  0.0000000000000D+00
335  3.3400000000000D+00  0.0000000000000D+00  0.0000000000000D+00
336  3.3500000000000D+00  0.0000000000000D+00  0.0000000000000D+00
337  3.3600000000000D+00  0.0000000000000D+00  0.0000000000000D+00
338  3.3700000000000D+00  0.0000000000000D+00  0.0000000000000D+00
339  3.3800000000000D+00  0.0000000000000D+00  0.0000000000000D+00
340  3.3900000000000D+00  0.0000000000000D+00  0.0000000000000D+00
341  3.4000000000000D+00  0.0000000000000D+00  0.0000000000000D+00
342  3.4100000000000D+00  0.0000000000000D+00  0.0000000000000D+00
343  3.4200000000000D+00  0.0000000000000D+00  0.0000000000000D+00
344  3.4300000000000D+00  0.0000000000000D+00  0.0000000000000D+00
345  3.4400000000000D+00  0.0000000000000D+00  0.0000000000000D+00
346  3.4500000000000D+00  0.0000000000000D+00  0.0000000000000D+00
347  3.4600000000000D+00  0.0000000000000D+00  0.0000000000000D+00
348  3.4700000000000D+00  0.0000000000000D+00  0.0000000000000D+00
349  3.4800000000000D+00  0.0000000000000D+00  0.0000000000000D+00
350  3.4900000000000D+00  0.0000000000000D+00  0.0000000000000D+00
351  3.5000000000000D+00  0.0000000000000D+00  0.0000000000000D+00
352  3.5100000000000D+00  0.0000000000000D+00  0.0000000000000D+00
353  3.5200000000000D+00  0.0000000000000D+00  0.0000000000000D+00
354  3.5300000000000D+00  0.0000000000000D+00  0.0000000000000D+00
355  3.5400000000000D+00  0.0000000000000D+00  0.0000000000000D+00
356  3.5500000000000D+00  0.0000000000000D+00  0.0000000000000D+00
357  3.5600000000000D+00  0.0000000000000D+00  0.0000000000000D+00
358  3.5700000000000D+00  0.0000000000000D+00  0.0000000000000D+00
359  3.5800000000000D+00  0.0000000000000D+00  0.0000000000000D+00
360  3.5900000000000D+00  0.0000000000000D+00  0.0000000000000D+00
361  3.6000000000000D+00  0.0000000000000D+00  0.0000000000000D+00
362  3.6100000000000D+00  0.0000000000000D+00  0.0000000000000D+00
363  3.6200000000000D+00  0.0000000000000D+00  0.0000000000000D+00
364  3.6300000000000D+00  0.0000000000000D+00  0.0000000000000D+00
365  3.6400000000000D+00  0.0000000000000D+00  0.0000000000000D+00
366  3.6500000000000D+00  0.0000000000000D+00  0.0000000000000D+00
367  3.6600000000000D+00  0.0000000000000D+00  0.0000000000000D+00
368  3.6700000000000D+00  0.0000000000000D+00  0.0000000000000D+00
369  3.6800000000000D+00  0.0000000000000D+00  0.0000000000000D+00
370  3.6900000000000D+00  0.0000000000000D+00  0.0000000000000D+00
371  3.7000000000000D+00  0.0000000000000D+00  0.0000000000000D+00
372  3.7100000000000D+00  0.0000000000000D+00  0.0000000000000D+00
373  3.7200000000000D+00  0.0000000000000D+00  0.0000000000000D+00
374  3.7300000000000D+00  0.0000000000000D+00  0.0000000000000D+00
375  3.7400000000000D+00  0.0000000000000D+00  0.0000000000000D+00
376  3.7500000000000D+00  0.0000000000000D+00  0.0000000000000D+00
377  3.7600000000000D+00  0.0000000000000D+00  0.0000000000000D+00
378  3.7700000000000D+00  0.0000000000000D+00  0.0000000000000D+00
379  3.7800000000000D+00  0.0000000000000D+00  0.0000000000000D+00
380  3.7900000000000D+00  0.0000000000000D+00  0.0000000000000D+00
381  3.8000000000000D+00  0.0000000000000D+00  0.0000000000000D+00
382  3.8100000000000D+00  0.0000000000000D+00  0.0000000000000D+00
383  3.8200000000000D+00  0.0000000000000D+00  0.0000000000000D+00
384  3.8300000000000D+00  0.0000000000000D+00  0.0000000000000D+00
385  3.8400000000000D+00  0.0000000000000D+00  0.0000000000000D+00
386  3.8500000000000D+00  0.0000000000000D+00  0.0000000000000D+00
387  3.8600000000000D+00  0.0000000000000D+00  0.0000000000000D+00
388  3.8700000000000D+00  0.0000000000000D+00  0.0000000000000D+00
389  3.8800000000000D+00  0.0000000000000D+00  0.0000000000000D+00
390  3.8900000000000D+00  0.0000000000000D+00  0.0000000000000D+00
391  3.9000000000000D+00  0.0000000000000D+00  0.0000000000000D+00
392  3.9100000000000D+00  0.0000000000000D+00  0.0000000000000D+00
393  3.9200000000000D+00  0.0000000000000D+00  0.0000000000000D+00
394  3.9300000000000D+00  0.0000000000000D+00  0.0000000000000D+00
395  3.9400000000000D+00  0.0000000000000D+00  0.0000000000000D+00
396  3.9500000000000D+00  0.0000000000000D+00  0.0000000000000D+00
397  3.9600000000000D+00  0.0000000000000D+00  0.0000000000000D+00
398  3.9700000000000D+00  0.0000000000000D+00  0.0000000000000D+00
399  3.9800000000000D+00  0.0000000000000D+00  0.0000000000000D+00
400  3.9900000000000D+00  0.0000000000000D+00  0.0000000000000D+00
401  4.0000000000000D+00  0.0000000000000D+00  0.0000000000000D+00
402  4.0100000000000D+00  0.0000000000000D+00  0.0000000000000D+00
403  4.0200000000000D+00  0.0000000000000D+00  0.0000000000000D+00
404  4.0300000000000D+00  0.0000000000000D+00  0.0000000000000D+00
405  4.0400000000000D+00  0.0000000000000D+00  0.0000000000000D+00
406  4.0500000000000D+00  0.0000000000000D+00  0.0000000000000D+00
407  4.0600000000000D+00  0.0000000000000D+00  0.0000000000000D+00
408  4.0700000000000D+00  0.0000000000000D+00  0.0000000000000D+00
409  4.0800000000000D+00  0.0000000000000D+00  0.0000000000000D+00
410  4.0900000000000D+00  0.0000000000000D+00  0.0000000000000D+00
411  4.1000000000000D+00  0.0000000000000D+00  0.0000000000000D+00
412  4.1100000000000D+00  0.0000000000000D+00  0.0000000000000D+00
413  4.1200000000000D+00  0.0000000000000D+00  0.0000000000000D+00
414  4.1300000000000D+00  0.0000000000000D+00  0.0000000000000D+00
415  4.1400000000000D+00  0.0000000000000D+00  0.0000000000000D+00
416  4.1500000000000D+00  0.0000000000000D+00  0.0000000000000D+00
417  4.1600000000000D+00  0.0000000000000D+00  0.0000000000000D+00
418  4.1700000000000D+00  0.0000000000000D+00  0.0000000000000D+00
419  4.1800000000000D+00  0.0000000000000D+00  0.0000000000000D+00
420  4.1900000000000D+00  0.0000000000000D+00  0.0000000000000D+00
421  4.2000000000000D+00  0.0000000000000D+00  0.0000000000000D+00
422  4.2100000000000D+00  0.0000000000000D+00  0.0000000000000D+00
423  4.2200000000000D+00  0.0000000000000D+00  0.0000000000000D+00
424  4.2300000000000D+00  0.0000000000000D+00  0.0000000000000D+00
425  4.2400000000000D+00  0.0000000000000D+00  0.0000000000000D+00
426  4.2500000000000D+00  0.0000000000000D+00  0.0000000000000D+00
427  4.2600000000000D+00  0.0000000000000D+00  0.0000000000000D+00
428  4.2700000000000D+00  0.0000000000000D+00  0.0000000000000D+00
429  4.2800000000000D+00  0.0000000000000D+00  0.0000000000000D+00
430  4.2900000000000D+00  0.0000000000000D+00  0.0000000000000D+00
431  4.3000000000000D+00  0.0000000000000D+00  0.0000000000000D+00
432  4.3100000000000D+00  0.0000000000000D+00  0.0000000000000D+00
433  4.3200000000000D+00  0.0000000000000D+00  0.0000000000000D+00
434  4.3300000000000D+00  0.0000000000000D+00  0.0000000000000D+00
435  4.3400000000000D+00  0.0000000000000D+00  0.0000000000000D+00
436  4.3500000000000D+00  0.0000000000000D+00  0.0000000000000D+00
437  4.3600000000000D+00  0.0000000000000D+00  0.0000000000000D+00
438  4.3700000000000D+00  0.0000000000000D+00  0.0000000000000D+00
439  4.3800000000000D+00  0.0000000000000D+00  0.0000000000000D+00
440  4.3900000000000D+00  0.0000000000000D+00  0.0000000000000D+00
441  4.4000000000000D+00  0.0000000000000D+00  0.0000000000000D+00
442  4.4100000000000D+00  0.0000000000000D+00  0.0000000000000D+00
443  4.4200000000000D+00  0.0000000000000D+00  0.0000000000000D+00