<?xml version="1.0" encoding="UTF-8" ?>
<psml version="1.1" energy_unit="hartree" length_unit="bohr"
 uuid="236ae860-43c4-11e8-48f8-9fcd1e5fd924"
 xmlns="http://esl.cecam.org/PSML/ns/1.1">
<provenance creator="ONCVPSP-3.3.0+psml-3.3.0-73 (fully-relativistic)"
 date="2018-04-19">
<annotation action="semilocal-pseudopotential-generation"
 action-cont="projectors-generation" />
<input-file name="oncvpsp-input">
<![CDATA[# atsym z nc nv iexc psfile
Sr 38 6 3 4 both
# n l f
1 0 2.0
2 0 2.0
2 1 6.0
3 0 2.0
3 1 6.0
3 2 10.0
4 0 2.0
4 1 6.0
5 0 2.0
# lmax
2
# l rc ep ncon nbas qcut
0 1.65 0.0 4 8 6.7
1 1.3 0.0 4 8 8.3
2 1.5 0.0 4 8 7.8
# lloc lpopt rc5 dvloc0
4 5 1.3 0
# l nproj debl
0 2 1.0
1 2 3.0
2 2 3.5
# icmod fcfact rcfact
3 6.0 1.35
# epsh1 epsh2 depsh
-12.0 12.0 0.02
# rlmax drl
6.0 0.01
 0
]]>
</input-file>
</provenance>
<pseudo-atom-spec atomic-label="Sr" atomic-number="38" z-pseudo="10"
 flavor="Hamann&apos;s oncvpsp" relativity="dirac" spin-dft="no"
 core-corrections="yes">
<annotation pseudo-energy="-30.9008936915" />
<exchange-correlation>
<annotation oncvpsp-xc-code="4" oncvpsp-xc-type="GGA -- Perdew-Burke-Ernzerhof" />
<libxc-info number-of-functionals="2">
<functional name="Perdew, Burke &amp; Ernzerhof (GGA)" type="exchange" id="101" />
<functional name="Perdew, Burke &amp; Ernzerhof (GGA)" type="correlation"
 id="130" />
</libxc-info>
</exchange-correlation>
<valence-configuration total-valence-charge="10">
<shell n="4" l="s" occupation="2" />
<shell n="4" l="p" occupation="6" />
<shell n="5" l="s" occupation="2" />
</valence-configuration>
</pseudo-atom-spec>
<grid npts="457">
<annotation type="sampled from oncvpsp log grid"
 recipe="r(i:1..N) = r1*exp(a*(i-1)) + r=0; resampled"
 recipe-cont="r1: scale; a: step" scale="0.131578947368E-04"
 step="0.119285708653E-01" delta="0.500000000000E-02" rmax="44.3233076602" />
<grid-data>
  0.000000000000E+00  5.001285356115E-03  1.010955111220E-02  1.516593874179E-02
  2.019303497754E-02  2.532977517910E-02  3.065628572608E-02  3.579861277629E-02
  4.081801070727E-02  4.598931705399E-02  5.120136896821E-02  5.632817400049E-02
  6.196832721796E-02  6.736485206945E-02  7.323133442633E-02  7.866472394973E-02
  8.450124311626E-02  8.969446845692E-02  9.520685584117E-02  1.010580201333E-01
  1.072687816757E-01  1.125111070896E-01  1.180096298362E-01  1.237768705182E-01
  1.298259616315E-01  1.361706774698E-01  1.428254654891E-01  1.480291296502E-01
  1.534223826959E-01  1.590121320562E-01  1.648055368242E-01  1.708100169258E-01
  1.770332626221E-01  1.834832443594E-01  1.901682229770E-01  1.970967602872E-01
  2.042777300411E-01  2.117203292939E-01  2.168321049244E-01  2.220672992657E-01
  2.274288921392E-01  2.329199353110E-01  2.385435542291E-01  2.443029498024E-01
  2.502014002225E-01  2.562422628294E-01  2.624289760232E-01  2.687650612203E-01
  2.752541248584E-01  2.818998604490E-01  2.887060506796E-01  2.956765695673E-01
  3.028153846629E-01  3.101265593102E-01  3.176142549582E-01  3.252827335299E-01
  3.331363598482E-01  3.411796041204E-01  3.494170444823E-01  3.578533696043E-01
  3.664933813600E-01  3.753419975595E-01  3.844042547486E-01  3.936853110753E-01
  4.031904492259E-01  4.129250794320E-01  4.228947425498E-01  4.279694794604E-01
  4.331051132139E-01  4.383023745725E-01  4.435620030674E-01  4.488847471042E-01
  4.542713640694E-01  4.597226204382E-01  4.652392918835E-01  4.708221633861E-01
  4.764720293467E-01  4.821896936989E-01  4.879759700233E-01  4.938316816636E-01
  4.997576618435E-01  5.057547537857E-01  5.118238108311E-01  5.179656965611E-01
  5.241812849198E-01  5.304714603388E-01  5.368371178629E-01  5.432791632772E-01
  5.497985132366E-01  5.563960953954E-01  5.630728485402E-01  5.698297227226E-01
  5.766676793953E-01  5.835876915481E-01  5.905907438466E-01  5.976778327728E-01
  6.048499667661E-01  6.121081663673E-01  6.194534643637E-01  6.268869059360E-01
  6.344095488073E-01  6.420224633929E-01  6.497267329537E-01  6.575234537491E-01
  6.654137351941E-01  6.733987000164E-01  6.814794844166E-01  6.896572382296E-01
  6.979331250884E-01  7.063083225894E-01  7.147840224605E-01  7.233614307300E-01
  7.320417678988E-01  7.408262691136E-01  7.497161843429E-01  7.587127785551E-01
  7.678173318977E-01  7.770311398805E-01  7.863555135591E-01  7.957917797218E-01
  8.053412810784E-01  8.150053764514E-01  8.247854409688E-01  8.346828662604E-01
  8.446990606555E-01  8.548354493834E-01  8.650934747760E-01  8.754745964733E-01
  8.859802916310E-01  8.966120551306E-01  9.073713997921E-01  9.182598565896E-01
  9.292789748687E-01  9.404303225671E-01  9.517154864379E-01  9.631360722752E-01
  9.746937051425E-01  9.863900296042E-01  9.982267099595E-01  1.010205430479E+00
  1.022327895645E+00  1.034595830392E+00  1.047010980357E+00  1.059575112121E+00
  1.072290013467E+00  1.085157493629E+00  1.098179383552E+00  1.111357536155E+00
  1.124693826589E+00  1.138190152508E+00  1.151848434338E+00  1.165670615550E+00
  1.179658662936E+00  1.193814566892E+00  1.208140341694E+00  1.222638025795E+00
  1.237309682104E+00  1.252157398289E+00  1.267183287069E+00  1.282389486514E+00
  1.297778160352E+00  1.313351498276E+00  1.329111716255E+00  1.345061056850E+00
  1.361201789533E+00  1.377536211007E+00  1.394066645539E+00  1.410795445286E+00
  1.427724990629E+00  1.444857690517E+00  1.462195982803E+00  1.479742334596E+00
  1.497499242612E+00  1.515469233523E+00  1.533654864325E+00  1.552058722697E+00
  1.570683427369E+00  1.589531628498E+00  1.608606008040E+00  1.627909280136E+00
  1.647444191498E+00  1.667213521796E+00  1.687220084058E+00  1.707466725066E+00
  1.727956325767E+00  1.748691801676E+00  1.769676103296E+00  1.790912216536E+00
  1.812403163134E+00  1.834152001092E+00  1.856161825105E+00  1.878435767006E+00
  1.900976996210E+00  1.923788720165E+00  1.946874184807E+00  1.970236675025E+00
  1.993879515125E+00  2.017806069306E+00  2.042019742138E+00  2.066523979044E+00
  2.091322266792E+00  2.116418133994E+00  2.141815151602E+00  2.167516933421E+00
  2.193527136622E+00  2.219849462261E+00  2.246487655808E+00  2.273445507678E+00
  2.300726853770E+00  2.328335576016E+00  2.356275602928E+00  2.384550910163E+00
  2.413165521085E+00  2.442123507338E+00  2.471428989426E+00  2.501086137299E+00
  2.531099170947E+00  2.561472360998E+00  2.592210029330E+00  2.623316549682E+00
  2.654796348278E+00  2.686653904457E+00  2.718893751311E+00  2.751520476327E+00
  2.784538722043E+00  2.817953186707E+00  2.851768624948E+00  2.885989848447E+00
  2.920621726628E+00  2.955669187348E+00  2.991137217596E+00  3.027030864207E+00
  3.063355234578E+00  3.100115497393E+00  3.137316883361E+00  3.174964685962E+00
  3.213064262193E+00  3.251621033339E+00  3.290640485740E+00  3.330128171568E+00
  3.370089709627E+00  3.410530786143E+00  3.451457155576E+00  3.492874641443E+00
  3.534789137141E+00  3.577206606786E+00  3.620133086068E+00  3.663574683101E+00
  3.707537579298E+00  3.752028030249E+00  3.797052366612E+00  3.842616995012E+00
  3.888728398952E+00  3.935393139739E+00  3.982617857416E+00  4.030409271705E+00
  4.078774182966E+00  4.127719473161E+00  4.177252106839E+00  4.227379132121E+00
  4.278107681707E+00  4.329444973887E+00  4.381398313574E+00  4.433975093337E+00
  4.487182794457E+00  4.541028987990E+00  4.595521335846E+00  4.650667591876E+00
  4.706475602979E+00  4.762953310215E+00  4.820108749937E+00  4.877950054936E+00
  4.936485455596E+00  4.995723281063E+00  5.055671960436E+00  5.116340023961E+00
  5.177736104248E+00  5.239868937499E+00  5.302747364749E+00  5.366380333126E+00
  5.430776897124E+00  5.495946219889E+00  5.561897574528E+00  5.628640345422E+00
  5.696184029567E+00  5.764538237922E+00  5.833712696777E+00  5.903717249139E+00
  5.974561856128E+00  6.046256598402E+00  6.118811677583E+00  6.192237417714E+00
  6.266544266726E+00  6.341742797927E+00  6.417843711502E+00  6.494857836040E+00
  6.572796130072E+00  6.651669683633E+00  6.731489719837E+00  6.812267596475E+00
  6.894014807633E+00  6.976742985324E+00  7.060463901148E+00  7.145189467962E+00
  7.230931741577E+00  7.317702922476E+00  7.405515357546E+00  7.494381541837E+00
  7.584314120339E+00  7.675325889783E+00  7.767429800460E+00  7.860638958066E+00
  7.954966625562E+00  8.050426225069E+00  8.147031339770E+00  8.244795715847E+00
  8.343733264437E+00  8.443858063611E+00  8.545184360374E+00  8.647726572698E+00
  8.751499291571E+00  8.856517283070E+00  8.962795490467E+00  9.070349036352E+00
  9.179193224788E+00  9.289343543486E+00  9.400815666008E+00  9.513625454000E+00
  9.627788959448E+00  9.743322426961E+00  9.860242296085E+00  9.978565203638E+00
  1.009830798608E+01  1.021948768191E+01  1.034212153410E+01  1.046622699251E+01
  1.059182171642E+01  1.071892357701E+01  1.084755065994E+01  1.097772126786E+01
  1.110945392307E+01  1.124276737015E+01  1.137768057859E+01  1.151421274553E+01
  1.165238329848E+01  1.179221189806E+01  1.193371844084E+01  1.207692306213E+01
  1.222184613887E+01  1.236850829254E+01  1.251693039205E+01  1.266713355675E+01
  1.281913915944E+01  1.297296882935E+01  1.312864445530E+01  1.328618818877E+01
  1.344562244703E+01  1.360696991639E+01  1.377025355539E+01  1.393549659806E+01
  1.410272255723E+01  1.427195522792E+01  1.444321869065E+01  1.461653731494E+01
  1.479193576272E+01  1.496943899187E+01  1.514907225978E+01  1.533086112689E+01
  1.551483146042E+01  1.570100943794E+01  1.588942155120E+01  1.608009460981E+01
  1.627305574513E+01  1.646833241407E+01  1.666595240304E+01  1.686594383188E+01
  1.706833515786E+01  1.727315517975E+01  1.748043304191E+01  1.769019823841E+01
  1.790248061727E+01  1.811731038468E+01  1.833471810930E+01  1.855473472661E+01
  1.877739154333E+01  1.900272024185E+01  1.923075288475E+01  1.946152191937E+01
  1.969506018240E+01  1.993140090459E+01  2.017057771544E+01  2.041262464803E+01
  2.065757614381E+01  2.090546705753E+01  2.115633266222E+01  2.141020865417E+01
  2.166713115802E+01  2.192713673191E+01  2.219026237270E+01  2.245654552117E+01
  2.272602406742E+01  2.299873635623E+01  2.327472119251E+01  2.355401784682E+01
  2.383666606098E+01  2.412270605371E+01  2.441217852636E+01  2.470512466867E+01
  2.500158616470E+01  2.530160519867E+01  2.560522446106E+01  2.591248715459E+01
  2.622343700044E+01  2.653811824445E+01  2.685657566338E+01  2.717885457134E+01
  2.750500082620E+01  2.783506083611E+01  2.816908156615E+01  2.850711054494E+01
  2.884919587148E+01  2.919538622194E+01  2.954573085660E+01  2.990027962688E+01
  3.025908298240E+01  3.062219197819E+01  3.098965828193E+01  3.136153418131E+01
  3.173787259149E+01  3.211872706259E+01  3.250415178734E+01  3.289420160879E+01
  3.328893202809E+01  3.368839921243E+01  3.409266000298E+01  3.450177192301E+01
  3.491579318609E+01  3.533478270432E+01  3.575880009677E+01  3.618790569794E+01
  3.662216056631E+01  3.706162649311E+01  3.750636601102E+01  3.795644240316E+01
  3.841191971199E+01  3.887286274854E+01  3.933933710152E+01  3.981140914674E+01
  4.028914605650E+01  4.077261580918E+01  4.126188719889E+01  4.175702984527E+01
  4.225811420342E+01  4.276521157386E+01  4.327839411275E+01  4.379773484210E+01
  4.432330766020E+01
</grid-data>
</grid>
<valence-charge total-charge="10" is-unscreening-charge="yes"
 rescaled-to-z-pseudo="no">
<radfunc>
<data npts="457">
  5.075143866704E-02  5.084160696958E-02  5.112002810085E-02  5.158153766303E-02
  5.222452468425E-02  5.307234157631E-02  5.415675736548E-02  5.540385742815E-02
  5.681291594919E-02  5.846523891249E-02  6.033949765872E-02  6.239089792888E-02
  6.488991259201E-02  6.752302048416E-02  7.065960308253E-02  7.382499036652E-02
  7.751077623955E-02  8.104486025133E-02  8.506483125605E-02  8.964225827760E-02
  9.486036052223E-02  9.956078208258E-02  1.047900441356E-01  1.106128441768E-01
  1.171026661300E-01  1.243430926845E-01  1.324293228285E-01  1.391138068386E-01
  1.463861909741E-01  1.543032616439E-01  1.629278132875E-01  1.723293162430E-01
  1.825846558825E-01  1.937789488385E-01  2.060064420494E-01  2.193715000416E-01
  2.339896852822E-01  2.499889354739E-01  2.614916786903E-01  2.737164519024E-01
  2.867120175850E-01  3.005304974364E-01  3.152275805573E-01  3.308627387552E-01
  3.474994480456E-01  3.652054151318E-01  3.840528073098E-01  4.041184838558E-01
  4.254842264965E-01  4.482369660455E-01  4.724690016862E-01  4.982782087010E-01
  5.257682296653E-01  5.550486432501E-01  5.862351037779E-01  6.194494435699E-01
  6.548197288777E-01  6.924802588134E-01  7.325714951703E-01  7.752399093578E-01
  8.206377308515E-01  8.689225796002E-01  9.202569627254E-01  9.748076136306E-01
  1.032744649325E+00  1.094240519395E+00  1.159468717713E+00  1.193536565274E+00
  1.228602225677E+00  1.264686936720E+00  1.301811653727E+00  1.339996972495E+00
  1.379263046125E+00  1.419629495451E+00  1.461115312779E+00  1.503738758662E+00
  1.547517251420E+00  1.592467249159E+00  1.638604124030E+00  1.685942028492E+00
  1.734493753390E+00  1.784270577641E+00  1.835282109410E+00  1.887536118661E+00
  1.941038361020E+00  1.995792392964E+00  2.051799378399E+00  2.109057886753E+00
  2.167563682824E+00  2.227309508685E+00  2.288284858074E+00  2.350475743805E+00
  2.413864458861E+00  2.478429331975E+00  2.544144478667E+00  2.610979548838E+00
  2.678899472240E+00  2.747864203291E+00  2.817828466935E+00  2.888741507415E+00
  2.960546842077E+00  3.033182022530E+00  3.106578405682E+00  3.180660937439E+00
  3.255347952026E+00  3.330550990124E+00  3.406174639182E+00  3.482116399476E+00
  3.558266579580E+00  3.634508225074E+00  3.710717084374E+00  3.786761615589E+00
  3.862503038305E+00  3.937795434099E+00  4.012485899447E+00  4.086414754460E+00
  4.159415810588E+00  4.231316700048E+00  4.301939269262E+00  4.371100038057E+00
  4.438610725724E+00  4.504278844344E+00  4.567908359009E+00  4.629300413704E+00
  4.688254120765E+00  4.744567410894E+00  4.798037939798E+00  4.848464046616E+00
  4.895645758435E+00  4.939385834390E+00  4.979490842164E+00  5.015772259103E+00
  5.048047589760E+00  5.076141491402E+00  5.099886898977E+00  5.119126141169E+00
  5.133712039496E+00  5.143508982995E+00  5.148393971725E+00  5.148257623237E+00
  5.143005137139E+00  5.132557213938E+00  5.116850925420E+00  5.095840534746E+00
  5.069498265280E+00  5.037815017685E+00  5.000801035040E+00  4.958486515496E+00
  4.910922171295E+00  4.858179731745E+00  4.800352385952E+00  4.737555158818E+00
  4.669925211025E+00  4.597622050655E+00  4.520827640740E+00  4.439746383819E+00
  4.354604961603E+00  4.265652005441E+00  4.173157571898E+00  4.077412397500E+00
  3.978726908113E+00  3.877429961603E+00  3.773866140764E+00  3.668387912688E+00
  3.561344969211E+00  3.453080934761E+00  3.343933365469E+00  3.234231335795E+00
  3.124294020892E+00  3.014429217103E+00  2.904931978348E+00  2.796083367015E+00
  2.688149331915E+00  2.581379725103E+00  2.476007468251E+00  2.372247877786E+00
  2.270298156262E+00  2.170337055416E+00  2.072524714051E+00  1.977002671382E+00
  1.883894053831E+00  1.793303930474E+00  1.705320007070E+00  1.620014173418E+00
  1.537444465337E+00  1.457655822292E+00  1.380680500927E+00  1.306538762814E+00
  1.235239526463E+00  1.166781037584E+00  1.101151552955E+00  1.038330033009E+00
  9.782868385726E-01  9.209844274634E-01  8.663780469527E-01  8.144164182951E-01
  7.650424100862E-01  7.181936969555E-01  6.738034011930E-01  6.318007143526E-01
  5.921114966946E-01  5.546588524047E-01  5.193636788239E-01  4.861451881846E-01
  4.549214006067E-01  4.256096073632E-01  3.981268036702E-01  3.723900905042E-01
  3.483170451832E-01  3.258260606775E-01  3.048366538332E-01  2.852697428940E-01
  2.670478948952E-01  2.500955436691E-01  2.343391793495E-01  2.197075103846E-01
  2.061315991661E-01  1.935449724585E-01  1.818837078696E-01  1.710864976388E-01
  1.610946910560E-01  1.518523168538E-01  1.433060869606E-01  1.354053830742E-01
  1.281022276157E-01  1.213512407652E-01  1.151095854577E-01  1.093369024027E-01
  1.039952373622E-01  9.904896302482E-02  9.446469779173E-02  9.021122359860E-02
  8.625940451623E-02  8.258210731311E-02  7.915412450150E-02  7.595209972788E-02
  7.295445482970E-02  7.014131756022E-02  6.749444892484E-02  6.499716925515E-02
  6.263428249571E-02  6.039199859482E-02  5.825785427935E-02  5.622063279121E-02
  5.427028333943E-02  5.239784108160E-02  5.059534841363E-02  4.885577825095E-02
  4.717295985585E-02  4.554150762999E-02  4.395675316350E-02  4.241468072098E-02
  4.091186625433E-02  3.944541996098E-02  3.801293235302E-02  3.661242376351E-02
  3.524229718876E-02  3.390129434683E-02  3.258845481938E-02  3.130307813678E-02
  3.004468866150E-02  2.881300312312E-02  2.760790065827E-02  2.642939521086E-02
  2.527761015160E-02  2.415275498111E-02  2.305510398864E-02  2.198497674717E-02
  2.094272033720E-02  1.992869320414E-02  1.894325056822E-02  1.798673132030E-02
  1.705944635159E-02  1.616166827765E-02  1.529362252842E-02  1.445547978278E-02
  1.364734973021E-02  1.286927614075E-02  1.212123321969E-02  1.140312321422E-02
  1.071477522709E-02  1.005594517856E-02  9.426316847596E-03  8.825503882915E-03
  8.253052720588E-03  7.708446266343E-03  7.191108236078E-03  6.700408031165E-03
  6.235666026134E-03  5.796159149172E-03  5.381126641450E-03  4.989775889251E-03
  4.621288232616E-03  4.274824665189E-03  3.949531351622E-03  3.644544900837E-03
  3.358997345216E-03  3.092020787098E-03  2.842751684549E-03  2.610334758076E-03
  2.393926508660E-03  2.192698345136E-03  2.005839325526E-03  1.832558522467E-03
  1.672087027408E-03  1.523679611855E-03  1.386616066633E-03  1.260202242141E-03
  1.143770813765E-03  1.036681797272E-03  9.383228391060E-04  8.481093061082E-04
  7.654841984904E-04  6.899179087697E-04  6.209078481040E-04  5.579779599502E-04
  5.006781393487E-04  4.485835744405E-04  4.012940250988E-04  3.584330518590E-04
  3.196472066890E-04  2.846051955959E-04  2.529970216370E-04  2.245331156147E-04
  1.989434605907E-04  1.759767153743E-04  1.553993412972E-04  1.369947359000E-04
  1.205623765896E-04  1.059169768830E-04  9.288765749911E-05  8.131713428995E-05
  7.106092478985E-05  6.198657499170E-05  5.397290781793E-05  4.690929462811E-05
  4.069495098409E-05  3.523825777134E-05  3.045610864505E-05  2.627328463115E-05
  2.262185656283E-05  1.944061587486E-05  1.667453411238E-05  1.427425134022E-05
  1.219559346752E-05  1.039911833264E-05  8.849690229147E-06  7.516082398096E-06
  6.370606866735E-06  5.388770882540E-06  4.548959074777E-06  3.832140375283E-06
  3.221598646347E-06  2.702685896622E-06  2.262596915647E-06  1.890164123275E-06
  1.575671411098E-06  1.310685747759E-06  1.087905327531E-06  9.010230603150E-07
  7.446042297978E-07  6.139771834336E-07  5.051359617186E-07  4.146538235212E-07
  3.396066776806E-07  2.775054874858E-07  2.262367728883E-07  1.840103943854E-07
  1.493138615869E-07  1.208724677849E-07  9.761460877623E-08  7.864169920577E-08
  6.320215242324E-08  5.066893993950E-08  4.052029382847E-08  3.232315968753E-08
  2.571904897122E-08  2.041197762732E-08  1.615821302163E-08  1.275758320555E-08
  1.004613176253E-08  7.889927891241E-09  6.179865191222E-09  4.827303969587E-09
  3.760430951155E-09  2.921227220501E-09  2.262950222959E-09  1.748048871115E-09
  1.346442406785E-09  1.034103812565E-09  7.918973998328E-10  6.046278613050E-10
  4.602646953002E-10  3.493116058757E-10  2.642953676865E-10  1.993528169129E-10
  1.498981804112E-10  1.123559657518E-10  8.394717778963E-11  6.251876752624E-11
  4.640801346019E-11  3.433503467422E-11  2.531788258087E-11  1.860569287235E-11
  1.362623400333E-11  9.944892123440E-12  7.232709362633E-12  5.241563772426E-12
  3.784962920507E-12  2.723234266905E-12  1.952146786189E-12  1.394200560579E-12
  9.919832125837E-13  7.031215284500E-13  4.964596226552E-13  3.491766052269E-13
  2.446211237114E-13  1.706907836772E-13  1.186240933463E-13  8.210348934474E-14
  5.659200595249E-14  3.884471570884E-14  2.655036783502E-14  1.806961708776E-14
  1.224461036507E-14  8.261066656373E-15  5.548807526893E-15  3.710329942949E-15
  2.469740995598E-15  1.636412102419E-15  1.079226098133E-15  7.084129249948E-16
  4.627967422515E-16  3.008839948400E-16  1.946649434654E-16  1.253230220929E-16
  8.027913549210E-17  5.116549484961E-17  3.244351850177E-17  2.046578034191E-17
  1.284254439818E-17  8.016208622534E-18  4.976851750686E-18  3.073125032973E-18
  1.887197020073E-18  1.152489689093E-18  6.998590917247E-19  4.225795972926E-19
  2.536886475976E-19  1.514111965534E-19  8.983567983344E-20  5.298374257845E-20
  3.106048245771E-20  0.000000000000E+00  0.000000000000E+00  0.000000000000E+00
  0.000000000000E+00
</data>
</radfunc>
</valence-charge>
<pseudocore-charge matching-radius="0.929278974869"
 number-of-continuous-derivatives="4">
<annotation model-charge-form="Teter function with specified parameters" />
<radfunc>
<data npts="290">
  3.113737666347E+01  3.113581319220E+01  3.113098875229E+01  3.112300253409E+01
  3.111189817892E+01  3.109729574898E+01  3.107868285248E+01  3.105736631379E+01
  3.103339410256E+01  3.100543328872E+01  3.097390964575E+01  3.093963715571E+01
  3.089820512023E+01  3.085491985609E+01  3.080384051203E+01  3.075280913123E+01
  3.069402267275E+01  3.063827718086E+01  3.057558277514E+01  3.050508942757E+01
  3.042584748233E+01  3.035544674754E+01  3.027817297773E+01  3.019337454960E+01
  3.010034212672E+01  2.999830441354E+01  2.988642378982E+01  2.979551024891E+01
  2.969813986362E+01  2.959387700618E+01  2.948226018619E+01  2.936280107263E+01
  2.923498357582E+01  2.909826301123E+01  2.895206537083E+01  2.879578673191E+01
  2.862879283757E+01  2.845041888862E+01  2.832483856198E+01  2.819367855602E+01
  2.805671951735E+01  2.791373633967E+01  2.776449832493E+01  2.760876938861E+01
  2.744630831386E+01  2.727686905942E+01  2.710020112669E+01  2.691604999144E+01
  2.672415760636E+01  2.652426298051E+01  2.631610284242E+01  2.609941239363E+01
  2.587392615986E+01  2.563937894721E+01  2.539550691091E+01  2.514204874427E+01
  2.487874699565E+01  2.460534952108E+01  2.432161108007E+01  2.402729508191E+01
  2.372217548930E+01  2.340603888561E+01  2.307868671114E+01  2.273993767299E+01
  2.238963033152E+01  2.202762586522E+01  2.165381101346E+01  2.146244705224E+01
  2.126810119473E+01  2.107076788886E+01  2.087044379506E+01  2.066712789760E+01
  2.046082161837E+01  2.025152893261E+01  2.003925648674E+01  1.982401371785E+01
  1.960581297485E+01  1.938466964103E+01  1.916060225775E+01  1.893363264900E+01
  1.870378604662E+01  1.847109121583E+01  1.823558058073E+01  1.799729034940E+01
  1.775626063826E+01  1.751253559521E+01  1.726616352115E+01  1.701719698938E+01
  1.676569296233E+01  1.651171290515E+01  1.625532289552E+01  1.599659372906E+01
  1.573560101975E+01  1.547242529463E+01  1.520715208211E+01  1.493987199304E+01
  1.467068079389E+01  1.439967947120E+01  1.412697428632E+01  1.385267681978E+01
  1.357690400422E+01  1.329977814509E+01  1.302142692802E+01  1.274198341207E+01
  1.246158600775E+01  1.218037843891E+01  1.189850968741E+01  1.161613391971E+01
  1.133341039422E+01  1.105050334862E+01  1.076758186603E+01  1.048481971921E+01
  1.020239519177E+01  9.920490875754E+00  9.639293444517E+00  9.358993400390E+00
  9.079784796369E+00  8.801864931267E+00  8.525434017877E+00  8.250694823770E+00
  7.977852284496E+00  7.707113089090E+00  7.438685237946E+00  7.172777573276E+00
  6.909599282556E+00  6.649359375569E+00  6.392266135841E+00  6.138526547518E+00
  5.888345698942E+00  5.641926164445E+00  5.399467366152E+00  5.161164917821E+00
  4.927209953069E+00  4.697788440591E+00  4.473080489268E+00  4.253259646380E+00
  4.038492192408E+00  3.828936436207E+00  3.624742014612E+00  3.426049200830E+00
  3.232988226199E+00  3.045678620159E+00  2.864228573486E+00  2.688734330032E+00
  2.519279612368E+00  2.355935086832E+00  2.198757873585E+00  2.047791107257E+00
  1.903063553787E+00  1.764589288906E+00  1.632367443618E+00  1.506382021759E+00
  1.386601794430E+00  1.272980275734E+00  1.165455783766E+00  1.063951590274E+00
  9.683761617936E-01  8.786234943245E-01  7.945735428739E-01  7.160927462753E-01
  6.430346467939E-01  5.752406030030E-01  5.125405933646E-01  4.547541068347E-01
  4.016911156763E-01  3.531531244968E-01  3.089342883679E-01  2.688225917332E-01
  2.326010787001E-01  2.000491242548E-01  1.709437349679E-01  1.450608668848E-01
  1.221767475559E-01  1.020691885705E-01  8.451887454440E-02  6.931061429424E-02
  5.623453993314E-02  4.508723985600E-02  3.567281206660E-02  2.780382503875E-02
  2.130217430550E-02  1.599982423198E-02  1.173942594090E-02  8.374804110341E-03
  5.771307328943E-03  3.806018844070E-03  2.367826837977E-03  1.357355770117E-03
  6.867627807328E-04  2.794056050864E-04  6.939083813799E-05  1.013652451698E-06
  2.810214215280E-05  1.132812785415E-04  2.271729569534E-04  3.475497336596E-04
  4.584605479302E-04  5.493469602086E-04  6.141681877939E-04  6.505524745210E-04
  6.589910972899E-04  6.420896143058E-04  6.038888402839E-04  5.492655534489E-04
  4.834201757661E-04  4.114557143277E-04  3.380492131545E-04  2.672139541280E-04
  2.021477802585E-04  1.451603093985E-04  9.766956989910E-05  6.025681654980E-05
  3.276705162695E-05  1.444213426722E-05  4.073335803933E-06  1.607822211326E-07
  1.068378180599E-06  5.164459071532E-06  1.094046800405E-05  1.710227903488E-05
  2.263124398289E-05  2.681447662684E-05  2.924615412678E-05  2.980357138355E-05
  2.860321119790E-05  2.594310354463E-05  2.223819121132E-05  1.795528973870E-05
  1.355356510704E-05  9.435333784959E-06  5.910534336883E-06  3.176572896038E-06
  1.313566378236E-06  2.934574457156E-07  1.988300446881E-10  2.573167930362E-07
  8.587373687826E-07  1.598817485846E-06  2.298035708174E-06  2.821683274368E-06
  3.090032844641E-06  3.079699945763E-06  2.817091339638E-06  2.365807026568E-06
  1.810510122240E-06  1.240029469855E-06  7.322981172458E-07  3.432003120269E-07
  1.005971027994E-07  3.861475104498E-09  0.000000000000E+00  0.000000000000E+00
  0.000000000000E+00  0.000000000000E+00  0.000000000000E+00  0.000000000000E+00
  0.000000000000E+00  0.000000000000E+00  0.000000000000E+00  0.000000000000E+00
  0.000000000000E+00  0.000000000000E+00  0.000000000000E+00  0.000000000000E+00
  0.000000000000E+00  0.000000000000E+00  0.000000000000E+00  0.000000000000E+00
  0.000000000000E+00  0.000000000000E+00  0.000000000000E+00  0.000000000000E+00
  0.000000000000E+00  0.000000000000E+00  0.000000000000E+00  0.000000000000E+00
  0.000000000000E+00  0.000000000000E+00  0.000000000000E+00  0.000000000000E+00
  0.000000000000E+00  0.000000000000E+00  0.000000000000E+00  0.000000000000E+00
  0.000000000000E+00  0.000000000000E+00  0.000000000000E+00  0.000000000000E+00
  0.000000000000E+00  0.000000000000E+00
</data>
</radfunc>
</pseudocore-charge>
<semilocal-potentials set="scalar_relativistic">
<slps n="4" l="s" rc="1.66721352180">
<radfunc>
<data npts="290">
  3.865770545506E+01  3.863654729809E+01  3.857136002044E+01  3.846378552726E+01
  3.831489850022E+01  3.812031918747E+01  3.787427126474E+01  3.759516213463E+01
  3.728464596024E+01  3.692688794738E+01  3.652914410553E+01  3.610330563666E+01
  3.559744769252E+01  3.507913019502E+01  3.448043890581E+01  3.389586350256E+01
  3.323865107049E+01  3.263088111221E+01  3.196463274594E+01  3.123648816075E+01
  3.044332673711E+01  2.976015582168E+01  2.903251040455E+01  2.825954253668E+01
  2.744073326828E+01  2.657594192516E+01  2.566545327793E+01  2.495303238554E+01
  2.421582300106E+01  2.345449515275E+01  2.266989122952E+01  2.186302912627E+01
  2.103510304943E+01  2.018748177354E+01  1.932170419261E+01  1.843947207504E+01
  1.754264000447E+01  1.663320257035E+01  1.602094987308E+01  1.540468952459E+01
  1.478509516205E+01  1.416285624910E+01  1.353867520693E+01  1.291326443818E+01
  1.228734327258E+01  1.166163486481E+01  1.103686307562E+01  1.041374936804E+01
  9.793009750225E+00  9.175351795947E+00  8.561471772440E+00  7.952051903994E+00
  7.347757797385E+00  6.749236052946E+00  6.157112082241E+00  5.571988150276E+00
  4.994441656919E+00  4.425023668769E+00  3.864257709257E+00  3.312638811247E+00
  2.770632832959E+00  2.238676034676E+00  1.717174910510E+00  1.206506266477E+00
  7.070175333119E-01  2.190272999356E-01 -2.571739488888E-01 -4.907703885901E-01
 -7.213229092021E-01 -9.488026660482E-01 -1.173182369139E+00 -1.394436241666E+00
 -1.612539976801E+00 -1.827470693001E+00 -2.039206888018E+00 -2.247728391802E+00
 -2.453016318523E+00 -2.655053017900E+00 -2.853822026056E+00 -3.049308016118E+00
 -3.241496748762E+00 -3.430375022941E+00 -3.615930626982E+00 -3.798152290310E+00
 -3.977029635990E+00 -4.152553134315E+00 -4.324714057653E+00 -4.493504436792E+00
 -4.658917018960E+00 -4.820945227762E+00 -4.979583125222E+00 -5.134825376134E+00
 -5.286667214911E+00 -5.435104415114E+00 -5.580133261820E+00 -5.721750526997E+00
 -5.859953448005E+00 -5.994739709332E+00 -6.126107427707E+00 -6.254055140553E+00
 -6.378581797950E+00 -6.499686757940E+00 -6.617369785310E+00 -6.731631053659E+00
 -6.842471150635E+00 -6.949891086225E+00 -7.053892303823E+00 -7.154476693827E+00
 -7.251646609417E+00 -7.345404884147E+00 -7.435754850875E+00 -7.522700361559E+00
 -7.606245807348E+00 -7.686396138332E+00 -7.763156882324E+00 -7.836534161921E+00
 -7.906534709105E+00 -7.973165876570E+00 -8.036435644956E+00 -8.096352625122E+00
 -8.152926054590E+00 -8.206165787292E+00 -8.256082275750E+00 -8.302686544868E+00
 -8.345990156537E+00 -8.386005164363E+00 -8.422744057906E+00 -8.456219695960E+00
 -8.486445228606E+00 -8.513434007960E+00 -8.537199487857E+00 -8.557755112990E+00
 -8.575114198476E+00 -8.589289801227E+00 -8.600294585016E+00 -8.608140681720E+00
 -8.612839551831E+00 -8.614401847921E+00 -8.612837285530E+00 -8.608154526515E+00
 -8.600361080670E+00 -8.589463231969E+00 -8.575465996469E+00 -8.558373119314E+00
 -8.538187118754E+00 -8.514909385335E+00 -8.488540344595E+00 -8.459079691598E+00
 -8.426526705524E+00 -8.390880652333E+00 -8.352141283155E+00 -8.310309435719E+00
 -8.265387745807E+00 -8.217381475359E+00 -8.166299463778E+00 -8.112155208909E+00